 vasp.5.4.4.18Apr17-6-g9f103f2a35 (build Dec 15 2018 21:27:11) complex          
  
 executed on             LinuxIFC date 2022.03.12  19:16:10
 running on   72 total cores
 distrk:  each k-point on   72 cores,    1 groups
 distr:  one band on NCORES_PER_BAND=  24 cores,    3 groups


--------------------------------------------------------------------------------------------------------


 INCAR:
 POTCAR:    PAW_PBE Fe 06Sep2000                  
 POTCAR:    PAW_PBE Ni 02Aug2007                  
 POTCAR:    PAW_PBE O 08Apr2002                   
 POTCAR:    PAW_PBE H 15Jun2001                   

 ----------------------------------------------------------------------------- 
|                                                                             |
|           W    W    AA    RRRRR   N    N  II  N    N   GGGG   !!!           |
|           W    W   A  A   R    R  NN   N  II  NN   N  G    G  !!!           |
|           W    W  A    A  R    R  N N  N  II  N N  N  G       !!!           |
|           W WW W  AAAAAA  RRRRR   N  N N  II  N  N N  G  GGG   !            |
|           WW  WW  A    A  R   R   N   NN  II  N   NN  G    G                |
|           W    W  A    A  R    R  N    N  II  N    N   GGGG   !!!           |
|                                                                             |
|      For optimal performance we recommend to set                            |
|        NCORE= 4 - approx SQRT( number of cores)                             |
|      NCORE specifies how many cores store one orbital (NPAR=cpu/NCORE).     |
|      This setting can  greatly improve the performance of VASP for DFT.     |
|      The default,   NCORE=1            might be grossly inefficient         |
|      on modern multi-core architectures or massively parallel machines.     |
|      Do your own testing !!!!                                               |
|      Unfortunately you need to use the default for GW and RPA calculations. |
|      (for HF NCORE is supported but not extensively tested yet)             |
|                                                                             |
 ----------------------------------------------------------------------------- 

 POTCAR:    PAW_PBE Fe 06Sep2000                  
   VRHFIN =Fe:  d7 s1                                                           
   LEXCH  = PE                                                                  
   EATOM  =   594.3153 eV,   43.6809 Ry                                         
                                                                                
   TITEL  = PAW_PBE Fe 06Sep2000                                                
   LULTRA =        F    use ultrasoft PP ?                                      
   IUNSCR =        1    unscreen: 0-lin 1-nonlin 2-no                           
   RPACOR =    2.000    partial core radius                                     
   POMASS =   55.847; ZVAL   =    8.000    mass and valenz                      
   RCORE  =    2.300    outmost cutoff radius                                   
   RWIGS  =    2.460; RWIGS  =    1.302    wigner-seitz radius (au A)           
   ENMAX  =  267.882; ENMIN  =  200.911 eV                                      
   RCLOC  =    1.701    cutoff for local pot                                    
   LCOR   =        T    correct aug charges                                     
   LPAW   =        T    paw PP                                                  
   EAUG   =  511.368                                                            
   DEXC   =    0.000                                                            
   RMAX   =    2.356    core radius for proj-oper                               
   RAUG   =    1.300    factor for augmentation sphere                          
   RDEP   =    2.442    radius for radial grids                                 
   RDEPT  =    1.890    core radius for aug-charge                              
                                                                                
   Atomic configuration                                                         
    9 entries                                                                   
     n  l   j            E        occ.                                          
     1  0  0.50     -6993.8440   2.0000                                         
     2  0  0.50      -814.6047   2.0000                                         
     2  1  1.50      -693.3689   6.0000                                         
     3  0  0.50       -89.4732   2.0000                                         
     3  1  1.50       -55.6373   6.0000                                         
     3  2  2.50        -3.8151   7.0000                                         
     4  0  0.50        -4.2551   1.0000                                         
     4  1  1.50        -3.4015   0.0000                                         
     4  3  2.50        -1.3606   0.0000                                         
   Description                                                                  
     l       E           TYP  RCUT    TYP  RCUT                                 
     2     -3.8151135     23  2.300                                             
     2     -5.1756961     23  2.300                                             
     0     -4.2550963     23  2.300                                             
     0      7.2035603     23  2.300                                             
     1     -2.7211652     23  2.300                                             
     1     18.4316424     23  2.300                                             
  local pseudopotential read in
  partial core-charges read in
  partial kinetic energy density read in
  atomic valenz-charges read in
  non local Contribution for L=           2  read in
    real space projection operators read in
  non local Contribution for L=           2  read in
    real space projection operators read in
  non local Contribution for L=           0  read in
    real space projection operators read in
  non local Contribution for L=           0  read in
    real space projection operators read in
  non local Contribution for L=           1  read in
    real space projection operators read in
  non local Contribution for L=           1  read in
    real space projection operators read in
    PAW grid and wavefunctions read in
 
   number of l-projection  operators is LMAX  =           6
   number of lm-projection operators is LMMAX =          18
 
 POTCAR:    PAW_PBE Ni 02Aug2007                  
   VRHFIN =Ni:                                                                  
   LEXCH  = PE                                                                  
   EATOM  =  1077.6739 eV,   79.2068 Ry                                         
                                                                                
   TITEL  = PAW_PBE Ni 02Aug2007                                                
   LULTRA =        F    use ultrasoft PP ?                                      
   IUNSCR =        1    unscreen: 0-lin 1-nonlin 2-no                           
   RPACOR =    2.000    partial core radius                                     
   POMASS =   58.690; ZVAL   =   10.000    mass and valenz                      
   RCORE  =    2.300    outmost cutoff radius                                   
   RWIGS  =    2.430; RWIGS  =    1.286    wigner-seitz radius (au A)           
   ENMAX  =  269.532; ENMIN  =  202.149 eV                                      
   RCLOC  =    1.201    cutoff for local pot                                    
   LCOR   =        T    correct aug charges                                     
   LPAW   =        T    paw PP                                                  
   EAUG   =  544.565                                                            
   DEXC   =    0.000                                                            
   RMAX   =    2.357    core radius for proj-oper                               
   RAUG   =    1.300    factor for augmentation sphere                          
   RDEP   =    2.390    radius for radial grids                                 
   RDEPT  =    1.838    core radius for aug-charge                              
                                                                                
   Atomic configuration                                                         
    9 entries                                                                   
     n  l   j            E        occ.                                          
     1  0  0.50     -8206.4253   2.0000                                         
     2  0  0.50      -976.1748   2.0000                                         
     2  1  1.50      -839.0571   6.0000                                         
     3  0  0.50      -105.9991   2.0000                                         
     3  1  1.50       -66.4603   6.0000                                         
     3  2  2.50        -4.6458   9.0000                                         
     4  0  0.50        -4.4926   1.0000                                         
     4  1  1.50        -4.0817   0.0000                                         
     4  3  2.50        -1.3606   0.0000                                         
   Description                                                                  
     l       E           TYP  RCUT    TYP  RCUT                                 
     2     -4.6457903     23  2.300                                             
     2     -6.0063729     23  2.300                                             
     0     -4.4925590     23  2.300                                             
     0      5.0102601     23  2.300                                             
     1     -2.7211652     23  2.300                                             
     1     16.5183231     23  2.300                                             
  local pseudopotential read in
  partial core-charges read in
  partial kinetic energy density read in
  atomic valenz-charges read in
  non local Contribution for L=           2  read in
    real space projection operators read in
  non local Contribution for L=           2  read in
    real space projection operators read in
  non local Contribution for L=           0  read in
    real space projection operators read in
  non local Contribution for L=           0  read in
    real space projection operators read in
  non local Contribution for L=           1  read in
    real space projection operators read in
  non local Contribution for L=           1  read in
    real space projection operators read in
    PAW grid and wavefunctions read in
 
   number of l-projection  operators is LMAX  =           6
   number of lm-projection operators is LMMAX =          18
 
 POTCAR:    PAW_PBE O 08Apr2002                   
   VRHFIN =O: s2p4                                                              
   LEXCH  = PE                                                                  
   EATOM  =   432.3788 eV,   31.7789 Ry                                         
                                                                                
   TITEL  = PAW_PBE O 08Apr2002                                                 
   LULTRA =        F    use ultrasoft PP ?                                      
   IUNSCR =        1    unscreen: 0-lin 1-nonlin 2-no                           
   RPACOR =    1.200    partial core radius                                     
   POMASS =   16.000; ZVAL   =    6.000    mass and valenz                      
   RCORE  =    1.520    outmost cutoff radius                                   
   RWIGS  =    1.550; RWIGS  =    0.820    wigner-seitz radius (au A)           
   ENMAX  =  400.000; ENMIN  =  300.000 eV                                      
   ICORE  =        2    local potential                                         
   LCOR   =        T    correct aug charges                                     
   LPAW   =        T    paw PP                                                  
   EAUG   =  605.392                                                            
   DEXC   =    0.000                                                            
   RMAX   =    1.553    core radius for proj-oper                               
   RAUG   =    1.300    factor for augmentation sphere                          
   RDEP   =    1.550    radius for radial grids                                 
   RDEPT  =    1.329    core radius for aug-charge                              
                                                                                
   Atomic configuration                                                         
    4 entries                                                                   
     n  l   j            E        occ.                                          
     1  0  0.50      -514.6923   2.0000                                         
     2  0  0.50       -23.9615   2.0000                                         
     2  1  0.50        -9.0305   4.0000                                         
     3  2  1.50        -9.5241   0.0000                                         
   Description                                                                  
     l       E           TYP  RCUT    TYP  RCUT                                 
     0    -23.9615318     23  1.200                                             
     0     -9.5240782     23  1.200                                             
     1     -9.0304911     23  1.520                                             
     1      8.1634956     23  1.520                                             
     2     -9.5240782      7  1.500                                             
  local pseudopotential read in
  partial core-charges read in
  partial kinetic energy density read in
  kinetic energy density of atom read in
  atomic valenz-charges read in
  non local Contribution for L=           0  read in
    real space projection operators read in
  non local Contribution for L=           0  read in
    real space projection operators read in
  non local Contribution for L=           1  read in
    real space projection operators read in
  non local Contribution for L=           1  read in
    real space projection operators read in
    PAW grid and wavefunctions read in
 
   number of l-projection  operators is LMAX  =           4
   number of lm-projection operators is LMMAX =           8
 
 POTCAR:    PAW_PBE H 15Jun2001                   
   VRHFIN =H: ultrasoft test                                                    
   LEXCH  = PE                                                                  
   EATOM  =    12.4884 eV,    0.9179 Ry                                         
                                                                                
   TITEL  = PAW_PBE H 15Jun2001                                                 
   LULTRA =        F    use ultrasoft PP ?                                      
   IUNSCR =        0    unscreen: 0-lin 1-nonlin 2-no                           
   RPACOR =    0.000    partial core radius                                     
   POMASS =    1.000; ZVAL   =    1.000    mass and valenz                      
   RCORE  =    1.100    outmost cutoff radius                                   
   RWIGS  =    0.700; RWIGS  =    0.370    wigner-seitz radius (au A)           
   ENMAX  =  250.000; ENMIN  =  200.000 eV                                      
   RCLOC  =    0.701    cutoff for local pot                                    
   LCOR   =        T    correct aug charges                                     
   LPAW   =        T    paw PP                                                  
   EAUG   =  400.000                                                            
   RMAX   =    1.123    core radius for proj-oper                               
   RAUG   =    1.200    factor for augmentation sphere                          
   RDEP   =    1.112    radius for radial grids                                 
   RDEPT  =    0.926    core radius for aug-charge                              
                                                                                
   Atomic configuration                                                         
    2 entries                                                                   
     n  l   j            E        occ.                                          
     1  0  0.50        -6.4927   1.0000                                         
     2  1  0.50        -3.4015   0.0000                                         
   Description                                                                  
     l       E           TYP  RCUT    TYP  RCUT                                 
     0     -6.4927494     23  1.100                                             
     0      6.8029130     23  1.100                                             
     1     -4.0817478     23  1.100                                             
  local pseudopotential read in
  atomic valenz-charges read in
  non local Contribution for L=           0  read in
    real space projection operators read in
  non local Contribution for L=           0  read in
    real space projection operators read in
  non local Contribution for L=           1  read in
    real space projection operators read in
    PAW grid and wavefunctions read in
 
   number of l-projection  operators is LMAX  =           3
   number of lm-projection operators is LMMAX =           5
 
 Optimization of the real space projectors (new method)

 maximal supplied QI-value         = 16.25
 optimisation between [QCUT,QGAM] = [ 11.54, 23.24] = [ 37.28,151.24] Ry 
 Optimized for a Real-space Cutoff    1.53 Angstroem

   l    n(q)    QCUT    max X(q) W(low)/X(q) W(high)/X(q)  e(spline) 
   2     10    11.539    80.901    0.11E-03    0.14E-03    0.21E-06
   2     10    11.539    75.754    0.11E-03    0.14E-03    0.22E-06
   0     11    11.539    58.752    0.52E-04    0.18E-04    0.33E-06
   0     11    11.539    30.679    0.44E-04    0.16E-04    0.30E-06
   1     10    11.539    17.977    0.53E-04    0.29E-04    0.13E-06
   1     10    11.539    13.559    0.44E-04    0.25E-04    0.11E-06
 Optimization of the real space projectors (new method)

 maximal supplied QI-value         = 16.25
 optimisation between [QCUT,QGAM] = [ 11.54, 23.24] = [ 37.28,151.24] Ry 
 Optimized for a Real-space Cutoff    1.45 Angstroem

   l    n(q)    QCUT    max X(q) W(low)/X(q) W(high)/X(q)  e(spline) 
   2      9    11.539    60.317    0.19E-03    0.47E-04    0.16E-06
   2      9    11.539    55.921    0.19E-03    0.48E-04    0.16E-06
   0     10    11.539    51.690    0.80E-04    0.50E-04    0.24E-06
   0     10    11.539    30.015    0.73E-04    0.45E-04    0.22E-06
   1     10    11.539    18.849    0.87E-04    0.16E-03    0.71E-07
   1     10    11.539    14.624    0.73E-04    0.13E-03    0.64E-07
 Optimization of the real space projectors (new method)

 maximal supplied QI-value         = 24.76
 optimisation between [QCUT,QGAM] = [ 11.64, 23.27] = [ 37.91,151.63] Ry 
 Optimized for a Real-space Cutoff    1.14 Angstroem

   l    n(q)    QCUT    max X(q) W(low)/X(q) W(high)/X(q)  e(spline) 
   0      8    11.635    20.381    0.10E-03    0.33E-03    0.24E-06
   0      8    11.635    15.268    0.11E-03    0.35E-03    0.26E-06
   1      7    11.635     5.964    0.24E-03    0.31E-03    0.30E-06
   1      7    11.635     5.382    0.22E-03    0.25E-03    0.26E-06
 Optimization of the real space projectors (new method)

 maximal supplied QI-value         = 34.20
 optimisation between [QCUT,QGAM] = [ 11.63, 23.26] = [ 37.87,151.49] Ry 
 Optimized for a Real-space Cutoff    1.21 Angstroem

   l    n(q)    QCUT    max X(q) W(low)/X(q) W(high)/X(q)  e(spline) 
   0      8    11.629    19.460    0.17E-03    0.34E-03    0.21E-06
   0      8    11.629    12.209    0.16E-03    0.33E-03    0.21E-06
   1      8    11.629     4.655    0.18E-03    0.16E-03    0.26E-06
  PAW_PBE Fe 06Sep2000                  :
 energy of atom  1       EATOM= -594.3153
 kinetic energy error for atom=    0.0026 (will be added to EATOM!!)
  PAW_PBE Ni 02Aug2007                  :
 energy of atom  2       EATOM=-1077.6739
 kinetic energy error for atom=    0.0030 (will be added to EATOM!!)
  PAW_PBE O 08Apr2002                   :
 energy of atom  3       EATOM= -432.3788
 kinetic energy error for atom=    0.0208 (will be added to EATOM!!)
  PAW_PBE H 15Jun2001                   :
 energy of atom  4       EATOM=  -12.4884
 kinetic energy error for atom=    0.0014 (will be added to EATOM!!)
 
 
 POSCAR: POSCAR                                  
  positions in direct lattice
  velocities in cartesian coordinates
 exchange correlation table for  LEXCH =        8
   RHO(1)=    0.500       N(1)  =     2000
   RHO(2)=  100.500       N(2)  =     4000

 VTST: version 3.2, (02/03/18)

 CHAIN: initializing optimizer
 
 OPT: Using VASP Dynamics algorithm
 CHAIN: Read ICHAIN            0
 
 POSCAR: POSCAR                                  
  positions in direct lattice
  velocities in cartesian coordinates
 


--------------------------------------------------------------------------------------------------------


 ion  position               nearest neighbor table
   1  0.002  0.999  0.097-   9 2.45  29 2.50  49 2.51  64 2.51  44 2.53   7 2.53  51 2.54  38 2.55
                             5 2.60
   2  0.002  0.997  0.381-  11 2.42  48 2.47   6 2.49  30 2.50  57 2.50   8 2.51  39 2.52  52 2.52
                            50 2.57
   3  0.499  0.996  0.096-   5 2.47  62 2.50  34 2.52  31 2.52  49 2.53  45 2.55  55 2.55  12 2.56
                            53 2.58
   4  0.504  0.993  0.380-  15 2.40  13 2.44  63 2.46  35 2.50  32 2.51   6 2.53  50 2.54  56 2.55
                            54 2.59
   5  0.743  0.996  0.094-   3 2.47  34 2.47  62 2.52  38 2.53  55 2.54  64 2.58  14 2.58  51 2.59
                             1 2.60
   6  0.756  0.996  0.385-  68 1.80  39 2.45   2 2.49  56 2.51  35 2.52  47 2.53   4 2.53  15 2.54
                            57 2.56  52 2.58
   7  0.249  0.253  0.097-  22 2.43   9 2.44  51 2.49  18 2.52  20 2.53   1 2.53  53 2.54  10 2.55
                            49 2.58
   8  0.252  0.245  0.382-  66 1.79  11 2.46  52 2.47  19 2.48  54 2.51   2 2.51  59 2.53  26 2.53
                            21 2.55  50 2.55
   9  0.089  0.161  0.191-  10 2.41   7 2.44   1 2.45  44 2.47  11 2.51  57 2.51  59 2.52  51 2.52
                            64 2.54  22 2.55  58 2.62  14 2.68
  10  0.330  0.166  0.195-  26 2.41   9 2.41  11 2.46  22 2.48  45 2.48  44 2.49  13 2.54   7 2.55
                            12 2.57  49 2.58  53 2.59  25 2.59
  11  0.165  0.079  0.289-   2 2.42   8 2.46  10 2.46  44 2.47  48 2.48  57 2.50  13 2.51   9 2.51
                            59 2.53  46 2.54  26 2.57  50 2.61
  12  0.583  0.166  0.194-  14 2.45  27 2.50  15 2.51  62 2.52  45 2.54  13 2.55  55 2.55   3 2.56
                            10 2.57  28 2.58  53 2.58  25 2.58
  13  0.415  0.083  0.292-   4 2.44  50 2.49  11 2.51  54 2.52  10 2.54  46 2.54  26 2.54  12 2.55
                            45 2.55  28 2.56  15 2.57  63 2.59
  14  0.827  0.167  0.193-  60 2.44  12 2.45  15 2.47  57 2.51  62 2.51  55 2.51  27 2.53  58 2.56
                            51 2.56   5 2.58  64 2.59   9 2.68
  15  0.668  0.082  0.290-   4 2.40  14 2.47  60 2.50  12 2.51  47 2.52  62 2.53  57 2.54   6 2.54
                            28 2.55  56 2.55  63 2.56  13 2.57
  16  0.003  0.511  0.095-  31 2.44  29 2.45  23 2.48  33 2.51  58 2.57  18 2.58  27 2.59  55 2.60
                            51 2.63
  17  0.005  0.500  0.377-  43 2.38  37 2.41  60 2.43  32 2.53  19 2.54  24 2.55  52 2.55  30 2.55
                            56 2.57
  18  0.256  0.506  0.097-  36 2.40  31 2.45  34 2.47  22 2.47  20 2.48   7 2.52  58 2.53  51 2.58
                            16 2.58
  19  0.250  0.489  0.385-  67 1.87  52 2.41   8 2.48  59 2.52  21 2.54  17 2.54  61 2.57  37 2.59
                            35 2.59  32 2.61
  20  0.500  0.503  0.098-  22 2.41  40 2.43  34 2.48  18 2.48  38 2.50  25 2.53   7 2.53  53 2.54
                            23 2.58
  21  0.504  0.496  0.376-  42 2.38  26 2.40  61 2.43  35 2.53  54 2.53  19 2.54   8 2.55  24 2.55
                            39 2.55
  22  0.339  0.416  0.189-  20 2.41   7 2.43  26 2.46  40 2.46  18 2.47  25 2.48  10 2.48  61 2.51
                            36 2.53  59 2.53   9 2.55  58 2.60
  23  0.757  0.508  0.096-  29 2.40  41 2.46  16 2.48  27 2.48  38 2.48  25 2.56  55 2.57  20 2.58
                            53 2.60
  24  0.752  0.495  0.394-  65 1.89  69 1.96  54 2.54  21 2.55  17 2.55  28 2.55  56 2.56  39 2.61
                            30 2.61  43 2.66  42 2.70
  25  0.586  0.422  0.194-  26 2.43  42 2.45  40 2.45  41 2.46  27 2.46  22 2.48  20 2.53  23 2.56
                            53 2.58  12 2.58  10 2.59  28 2.60
  26  0.417  0.335  0.285-  21 2.40  10 2.41  25 2.43  22 2.46  59 2.49  61 2.49   8 2.53  13 2.54
                            42 2.56  11 2.57  28 2.57  54 2.70
  27  0.827  0.417  0.192-  41 2.45  25 2.46  23 2.48  12 2.50  55 2.51  43 2.53  14 2.53  60 2.53
                            28 2.57  58 2.59  16 2.59  33 2.60
  28  0.670  0.334  0.294-  60 2.50  43 2.51  42 2.52  54 2.53  56 2.54  15 2.55  24 2.55  13 2.56
                            27 2.57  26 2.57  12 2.58  25 2.60
  29  0.992  0.747  0.096-  23 2.40  16 2.45  38 2.48  41 2.50   1 2.50  33 2.54  44 2.56  49 2.57
                            31 2.63
  30  0.010  0.754  0.388-  65 1.86  50 2.45  46 2.47  32 2.49   2 2.50  17 2.55  43 2.59  39 2.60
                            24 2.61  48 2.64
  31  0.251  0.746  0.097-  16 2.44  36 2.44  18 2.45  33 2.49  34 2.52   3 2.52  45 2.55  49 2.56
                            29 2.63
  32  0.253  0.749  0.389-  67 1.87  50 2.48  30 2.49   4 2.51  46 2.52  17 2.53  35 2.56  63 2.60
                            19 2.61  37 2.65
  33  0.086  0.671  0.192-  45 2.48  44 2.48  31 2.49  16 2.51  36 2.52  37 2.52  41 2.52  46 2.53
                            43 2.54  29 2.54  58 2.55  27 2.60
  34  0.502  0.749  0.098-  18 2.47   5 2.47  40 2.48  36 2.48  20 2.48  62 2.49  38 2.49  31 2.52
                             3 2.52
  35  0.506  0.746  0.385-  67 1.87  39 2.46  47 2.50   4 2.50   6 2.52  21 2.53  32 2.56  61 2.56
                            63 2.59  19 2.59
  36  0.330  0.661  0.190-  18 2.40  31 2.44  37 2.47  34 2.48  58 2.49  61 2.51  63 2.51  33 2.52
                            22 2.53  40 2.53  62 2.56  45 2.62
  37  0.170  0.578  0.286-  17 2.41  58 2.44  36 2.47  61 2.48  59 2.49  63 2.50  33 2.52  60 2.55
                            46 2.55  43 2.58  19 2.59  32 2.65
  38  0.748  0.749  0.094-  29 2.48  23 2.48  34 2.49  20 2.50   5 2.53  40 2.54  64 2.55   1 2.55
                            41 2.58
  39  0.751  0.751  0.388-  65 1.84   6 2.45  35 2.46   2 2.52  21 2.55  47 2.56  42 2.58  30 2.60
                            48 2.60  24 2.61
  40  0.580  0.661  0.192-  20 2.43  25 2.45  22 2.46  61 2.47  34 2.48  36 2.53  42 2.53  47 2.53
                            38 2.54  41 2.54  62 2.56  64 2.57
  41  0.832  0.662  0.193-  27 2.45  42 2.45  25 2.46  23 2.46  48 2.49  29 2.50  43 2.50  33 2.52
                            40 2.54  64 2.54  44 2.57  38 2.58
  42  0.673  0.584  0.288-  21 2.38  25 2.45  41 2.45  43 2.48  48 2.50  28 2.52  47 2.53  40 2.53
                            26 2.56  39 2.58  61 2.58  24 2.70
  43  0.917  0.582  0.289-  17 2.38  42 2.48  41 2.50  46 2.51  28 2.51  27 2.53  33 2.54  48 2.54
                            60 2.55  37 2.58  30 2.59  24 2.66
  44  0.086  0.916  0.194-  45 2.43  48 2.46   9 2.47  11 2.47  33 2.48  10 2.49   1 2.53  49 2.53
                            64 2.54  46 2.56  29 2.56  41 2.57
  45  0.327  0.919  0.193-  44 2.43  33 2.48  10 2.48  49 2.49  46 2.53  63 2.54  12 2.54  31 2.55
                            13 2.55   3 2.55  62 2.59  36 2.62
  46  0.167  0.829  0.292-  30 2.47  43 2.51  50 2.52  32 2.52  63 2.53  33 2.53  45 2.53  13 2.54
                            11 2.54  48 2.54  37 2.55  44 2.56
  47  0.665  0.830  0.288-  35 2.50  63 2.51  62 2.51  64 2.51  61 2.52  15 2.52   6 2.53  42 2.53
                            40 2.53  48 2.54  39 2.56  57 2.57
  48  0.918  0.834  0.286-  44 2.46  64 2.47   2 2.47  11 2.48  41 2.49  42 2.50  57 2.52  43 2.54
                            46 2.54  47 2.54  39 2.60  30 2.64
  49  0.249  0.998  0.096-  45 2.49   1 2.51  44 2.53   3 2.53  53 2.55  31 2.56  29 2.57  10 2.58
                             7 2.58
  50  0.254  0.994  0.389-  66 1.87  30 2.45  32 2.48  13 2.49  54 2.51  46 2.52   4 2.54   8 2.55
                             2 2.57  11 2.61
  51  0.001  0.250  0.097-   7 2.49  58 2.51   9 2.52   1 2.54  55 2.55  14 2.56  18 2.58   5 2.59
                            16 2.63
  52  0.011  0.251  0.381-  68 1.87  19 2.41  59 2.46   8 2.47  57 2.50   2 2.52  60 2.53  56 2.54
                            17 2.55   6 2.58
  53  0.499  0.252  0.095-  55 2.53   7 2.54  20 2.54  49 2.55   3 2.58  25 2.58  12 2.58  10 2.59
                            23 2.60
  54  0.499  0.245  0.390-  66 1.95  69 2.04   8 2.51  50 2.51  13 2.52  28 2.53  21 2.53  24 2.54
                             4 2.59  56 2.60  26 2.70
  55  0.749  0.251  0.096-  14 2.51  27 2.51  53 2.53   5 2.54  51 2.55   3 2.55  12 2.55  23 2.57
                            16 2.60
  56  0.756  0.244  0.389-  68 1.94  69 2.02   6 2.51  52 2.54  28 2.54  15 2.55   4 2.55  24 2.56
                            17 2.57  60 2.58  54 2.60
  57  0.920  0.084  0.286-  64 2.48  11 2.50  52 2.50   2 2.50  14 2.51  60 2.51   9 2.51  59 2.51
                            48 2.52  15 2.54   6 2.56  47 2.57
  58  0.083  0.417  0.192-  37 2.44  36 2.49  60 2.49  59 2.50  51 2.51  18 2.53  33 2.55  14 2.56
                            16 2.57  27 2.59  22 2.60   9 2.62
  59  0.170  0.332  0.286-  52 2.46  26 2.49  37 2.49  58 2.50  61 2.51  57 2.51  19 2.52   9 2.52
                             8 2.53  22 2.53  11 2.53  60 2.56
  60  0.915  0.329  0.287-  17 2.43  14 2.44  58 2.49  15 2.50  28 2.50  57 2.51  52 2.53  27 2.53
                            43 2.55  37 2.55  59 2.56  56 2.58
  61  0.416  0.581  0.286-  21 2.43  40 2.47  37 2.48  26 2.49  63 2.50  36 2.51  59 2.51  22 2.51
                            47 2.52  35 2.56  19 2.57  42 2.58
  62  0.582  0.915  0.192-  63 2.47  34 2.49   3 2.50  14 2.51  47 2.51   5 2.52  12 2.52  15 2.53
                            64 2.55  36 2.56  40 2.56  45 2.59
  63  0.416  0.828  0.286-   4 2.46  62 2.47  61 2.50  37 2.50  47 2.51  36 2.51  46 2.53  45 2.54
                            15 2.56  13 2.59  35 2.59  32 2.60
  64  0.834  0.915  0.192-  48 2.47  57 2.48   1 2.51  47 2.51   9 2.54  44 2.54  41 2.54  38 2.55
                            62 2.55  40 2.57   5 2.58  14 2.59
  65  0.842  0.678  0.442-  39 1.84  30 1.86  24 1.89
  66  0.316  0.163  0.441-   8 1.79  50 1.87  54 1.95
  67  0.337  0.658  0.439-  32 1.87  19 1.87  35 1.87
  68  0.851  0.154  0.439-   6 1.80  52 1.87  56 1.94
  69  0.671  0.326  0.455-  70 0.97  24 1.96  56 2.02  54 2.04
  70  0.675  0.326  0.500-  69 0.97
 

IMPORTANT INFORMATION: All symmetrisations will be switched off!
NOSYMM: (Re-)initialisation of all symmetry stuff for point group C_1.

 
 

Automatic generation of k-mesh.
 generate k-points for:    4    4    2
Space group operators:
 irot       det(A)        alpha          n_x          n_y          n_z        tau_x        tau_y        tau_z
    1     1.000000     0.000000     1.000000     0.000000     0.000000     0.000000     0.000000     0.000000
 
 Subroutine IBZKPT returns following result:
 ===========================================
 
 Found     20 irreducible k-points:
 
 Following reciprocal coordinates:
            Coordinates               Weight
  0.000000  0.000000  0.000000      1.000000
  0.250000  0.000000  0.000000      2.000000
  0.500000  0.000000  0.000000      1.000000
  0.000000  0.250000  0.000000      2.000000
  0.250000  0.250000  0.000000      2.000000
  0.500000  0.250000  0.000000      2.000000
 -0.250000  0.250000  0.000000      2.000000
  0.000000  0.500000  0.000000      1.000000
  0.250000  0.500000  0.000000      2.000000
  0.500000  0.500000  0.000000      1.000000
  0.000000  0.000000  0.500000      1.000000
  0.250000  0.000000  0.500000      2.000000
  0.500000  0.000000  0.500000      1.000000
  0.000000  0.250000  0.500000      2.000000
  0.250000  0.250000  0.500000      2.000000
  0.500000  0.250000  0.500000      2.000000
 -0.250000  0.250000  0.500000      2.000000
  0.000000  0.500000  0.500000      1.000000
  0.250000  0.500000  0.500000      2.000000
  0.500000  0.500000  0.500000      1.000000
 
 Following cartesian coordinates:
            Coordinates               Weight
  0.000000  0.000000  0.000000      1.000000
  0.024724  0.014274  0.000000      2.000000
  0.049448  0.028549  0.000000      1.000000
  0.000000  0.028549  0.000000      2.000000
  0.024724  0.042823  0.000000      2.000000
  0.049448  0.057098  0.000000      2.000000
 -0.024724  0.014274  0.000000      2.000000
  0.000000  0.057098  0.000000      1.000000
  0.024724  0.071372  0.000000      2.000000
  0.049448  0.085646  0.000000      1.000000
  0.000000  0.000000  0.023511      1.000000
  0.024724  0.014274  0.023511      2.000000
  0.049448  0.028549  0.023511      1.000000
  0.000000  0.028549  0.023511      2.000000
  0.024724  0.042823  0.023511      2.000000
  0.049448  0.057098  0.023511      2.000000
 -0.024724  0.014274  0.023511      2.000000
  0.000000  0.057098  0.023511      1.000000
  0.024724  0.071372  0.023511      2.000000
  0.049448  0.085646  0.023511      1.000000
 
 TETIRR: Found     96 inequivalent tetrahedra from      192


--------------------------------------------------------------------------------------------------------




 Dimension of arrays:
   k-points           NKPTS =     20   k-points in BZ     NKDIM =     20   number of bands    NBANDS=    381
   number of dos      NEDOS =    301   number of ions     NIONS =     70
   non local maximal  LDIM  =      6   non local SUM 2l+1 LMDIM =     18
   total plane-waves  NPLWV = ******
   max r-space proj   IRMAX =   8269   max aug-charges    IRDMAX=  19568
   dimension x,y,z NGX =    80 NGY =   80 NGZ =  160
   dimension x,y,z NGXF=   160 NGYF=  160 NGZF=  320
   support grid    NGXF=   160 NGYF=  160 NGZF=  320
   ions per type =              48  16   5   1
   NGX,Y,Z   is equivalent  to a cutoff of  13.15, 13.15, 12.51 a.u.
   NGXF,Y,Z  is equivalent  to a cutoff of  26.31, 26.31, 25.02 a.u.

 SYSTEM =  SQS-NiFe                                
 POSCAR =  POSCAR                                  

 Startparameter for this run:
   NWRITE =      2    write-flag & timer
   PREC   = accura    normal or accurate (medium, high low for compatibility)
   ISTART =      0    job   : 0-new  1-cont  2-samecut
   ICHARG =     11    charge: 1-file 2-atom 10-const
   ISPIN  =      2    spin polarized calculation?
   LNONCOLLINEAR =      F non collinear calculations
   LSORBIT =      F    spin-orbit coupling
   INIWAV =      1    electr: 0-lowe 1-rand  2-diag
   LASPH  =      F    aspherical Exc in radial PAW
   METAGGA=      F    non-selfconsistent MetaGGA calc.

 Electronic Relaxation 1
   ENCUT  =  520.0 eV  38.22 Ry    6.18 a.u.  18.80 18.80 39.54*2*pi/ulx,y,z
   ENINI  =  520.0     initial cutoff
   ENAUG  =  605.4 eV  augmentation charge cutoff
   NELM   =    200;   NELMIN=  2; NELMDL=  0     # of ELM steps 
   EDIFF  = 0.1E-05   stopping-criterion for ELM
   LREAL  =      T    real-space projection
   NLSPLINE    = F    spline interpolate recip. space projectors
   LCOMPAT=      F    compatible to vasp.4.4
   GGA_COMPAT  = T    GGA compatible to vasp.4.4-vasp.4.6
   LMAXPAW     = -100 max onsite density
   LMAXMIX     =    2 max onsite mixed and CHGCAR
   VOSKOWN=      0    Vosko Wilk Nusair interpolation
   ROPT   =   -0.00025  -0.00025  -0.00025  -0.00025
 Ionic relaxation
   EDIFFG = -.2E-01   stopping-criterion for IOM
   NSW    =      0    number of steps for IOM
   NBLOCK =      1;   KBLOCK =      1    inner block; outer block 
   IBRION =     -1    ionic relax: 0-MD 1-quasi-New 2-CG
   NFREE  =      0    steps in history (QN), initial steepest desc. (CG)
   ISIF   =      2    stress and relaxation
   IWAVPR =     10    prediction:  0-non 1-charg 2-wave 3-comb
   ISYM   =      0    0-nonsym 1-usesym 2-fastsym
   LCORR  =      T    Harris-Foulkes like correction to forces

   POTIM  = 0.5000    time-step for ionic-motion
   TEIN   =    0.0    initial temperature
   TEBEG  =    0.0;   TEEND  =   0.0 temperature during run
   SMASS  =  -3.00    Nose mass-parameter (am)
   estimated Nose-frequenzy (Omega)   =  0.10E-29 period in steps =****** mass=  -0.234E-26a.u.
   SCALEE = 1.0000    scale energy and forces
   NPACO  =    256;   APACO  = 16.0  distance and # of slots for P.C.
   PSTRESS=    0.0 pullay stress

  Mass of Ions in am
   POMASS =  55.85 58.69 16.00  1.00
  Ionic Valenz
   ZVAL   =   8.00 10.00  6.00  1.00
  Atomic Wigner-Seitz radii
   RWIGS  =  -1.00 -1.00 -1.00 -1.00
  virtual crystal weights 
   VCA    =   1.00  1.00  1.00  1.00
   NELECT =     575.0000    total number of electrons
   NUPDOWN=      -1.0000    fix difference up-down

 DOS related values:
   EMIN   =  10.00;   EMAX   =-10.00  energy-range for DOS
   EFERMI =   0.00
   ISMEAR =    -5;   SIGMA  =   0.20  broadening in eV -4-tet -1-fermi 0-gaus

 Electronic relaxation 2 (details)
   IALGO  =     68    algorithm
   LDIAG  =      T    sub-space diagonalisation (order eigenvalues)
   LSUBROT=      F    optimize rotation matrix (better conditioning)
   TURBO    =      0    0=normal 1=particle mesh
   IRESTART =      0    0=no restart 2=restart with 2 vectors
   NREBOOT  =      0    no. of reboots
   NMIN     =      0    reboot dimension
   EREF     =   0.00    reference energy to select bands
   IMIX   =      4    mixing-type and parameters
     AMIX     =   0.40;   BMIX     =  1.00
     AMIX_MAG =   1.60;   BMIX_MAG =  1.00
     AMIN     =   0.10
     WC   =   100.;   INIMIX=   1;  MIXPRE=   1;  MAXMIX= -45

 Intra band minimization:
   WEIMIN = 0.0000     energy-eigenvalue tresh-hold
   EBREAK =  0.66E-09  absolut break condition
   DEPER  =   0.30     relativ break condition  

   TIME   =   0.40     timestep for ELM

  volume/ion in A,a.u.               =      26.90       181.54
  Fermi-wavevector in a.u.,A,eV,Ry     =   1.102406  2.083245 16.535148  1.215299
  Thomas-Fermi vector in A             =   2.238848
 
 Write flags
   LWAVE        =      F    write WAVECAR
   LDOWNSAMPLE  =      F    k-point downsampling of WAVECAR
   LCHARG       =      F    write CHGCAR
   LVTOT        =      F    write LOCPOT, total local potential
   LVHAR        =      F    write LOCPOT, Hartree potential only
   LELF         =      F    write electronic localiz. function (ELF)
   LORBIT       =     11    0 simple, 1 ext, 2 COOP (PROOUT), +10 PAW based schemes


 Dipole corrections
   LMONO  =      F    monopole corrections only (constant potential shift)
   LDIPOL =      T    correct potential (dipole corrections)
   IDIPOL =      3    1-x, 2-y, 3-z, 4-all directions 
   EPSILON=  1.0000000 bulk dielectric constant

 Exchange correlation treatment:
   GGA     =    --    GGA type
   LEXCH   =     8    internal setting for exchange type
   VOSKOWN=      0    Vosko Wilk Nusair interpolation
   LHFCALC =     F    Hartree Fock is set to
   LHFONE  =     F    Hartree Fock one center treatment
   AEXX    =    0.0000 exact exchange contribution

 Linear response parameters
   LEPSILON=     F    determine dielectric tensor
   LRPA    =     F    only Hartree local field effects (RPA)
   LNABLA  =     F    use nabla operator in PAW spheres
   LVEL    =     F    velocity operator in full k-point grid
   LINTERFAST=   F  fast interpolation
   KINTER  =     0    interpolate to denser k-point grid
   CSHIFT  =0.1000    complex shift for real part using Kramers Kronig
   OMEGAMAX=  -1.0    maximum frequency
   DEG_THRESHOLD= 0.2000000E-02 threshold for treating states as degnerate
   RTIME   =   -0.100 relaxation time in fs
  (WPLASMAI=    0.000 imaginary part of plasma frequency in eV, 0.658/RTIME)
   DFIELD  = 0.0000000 0.0000000 0.0000000 field for delta impulse in time
 
 Orbital magnetization related:
   ORBITALMAG=     F  switch on orbital magnetization
   LCHIMAG   =     F  perturbation theory with respect to B field
   DQ        =  0.001000  dq finite difference perturbation B field
   LLRAUG    =     F  two centre corrections for induced B field



--------------------------------------------------------------------------------------------------------


 Static calculation
 charge density and potential remain constant during run
 spin polarized calculation
 RMM-DIIS sequential band-by-band and
  variant of blocked Davidson during initial phase
 perform sub-space diagonalisation
    before iterative eigenvector-optimisation
 no mixing
 using additional bands           93
 real space projection scheme for non local part
 use partial core corrections
 calculate Harris-corrections to forces 
   (improved forces if not selfconsistent)
 use gradient corrections 
 WARNING: stress and forces are not correct
  (second derivative of E(xc) not defined)
 use of overlap-Matrix (Vanderbilt PP)
 Fermi weights with tetrahedron method with Bloechl corrections


--------------------------------------------------------------------------------------------------------


  energy-cutoff  :      520.00
  volume of cell :     1883.07
      direct lattice vectors                 reciprocal lattice vectors
    10.111630000  0.000000000  0.000000000     0.098896024  0.057097646  0.000000000
    -5.055815000  8.756928450  0.000000000     0.000000000  0.114195292  0.000000000
     0.000000000  0.000000000 21.266430000     0.000000000  0.000000000  0.047022467

  length of vectors
    10.111630000 10.111629997 21.266430000     0.114195292  0.114195292  0.047022467


 
 k-points in units of 2pi/SCALE and weight: read from INCAR                         
   0.00000000  0.00000000  0.00000000       0.031
   0.02472401  0.01427441  0.00000000       0.062
   0.04944801  0.02854882  0.00000000       0.031
   0.00000000  0.02854882  0.00000000       0.062
   0.02472401  0.04282323  0.00000000       0.062
   0.04944801  0.05709765  0.00000000       0.062
  -0.02472401  0.01427441  0.00000000       0.062
   0.00000000  0.05709765  0.00000000       0.031
   0.02472401  0.07137206  0.00000000       0.062
   0.04944801  0.08564647  0.00000000       0.031
   0.00000000  0.00000000  0.02351123       0.031
   0.02472401  0.01427441  0.02351123       0.062
   0.04944801  0.02854882  0.02351123       0.031
   0.00000000  0.02854882  0.02351123       0.062
   0.02472401  0.04282323  0.02351123       0.062
   0.04944801  0.05709765  0.02351123       0.062
  -0.02472401  0.01427441  0.02351123       0.062
   0.00000000  0.05709765  0.02351123       0.031
   0.02472401  0.07137206  0.02351123       0.062
   0.04944801  0.08564647  0.02351123       0.031
 
 k-points in reciprocal lattice and weights: read from INCAR                         
   0.00000000  0.00000000  0.00000000       0.031
   0.25000000  0.00000000  0.00000000       0.062
   0.50000000  0.00000000  0.00000000       0.031
   0.00000000  0.25000000  0.00000000       0.062
   0.25000000  0.25000000  0.00000000       0.062
   0.50000000  0.25000000  0.00000000       0.062
  -0.25000000  0.25000000  0.00000000       0.062
   0.00000000  0.50000000  0.00000000       0.031
   0.25000000  0.50000000  0.00000000       0.062
   0.50000000  0.50000000  0.00000000       0.031
   0.00000000  0.00000000  0.50000000       0.031
   0.25000000  0.00000000  0.50000000       0.062
   0.50000000  0.00000000  0.50000000       0.031
   0.00000000  0.25000000  0.50000000       0.062
   0.25000000  0.25000000  0.50000000       0.062
   0.50000000  0.25000000  0.50000000       0.062
  -0.25000000  0.25000000  0.50000000       0.062
   0.00000000  0.50000000  0.50000000       0.031
   0.25000000  0.50000000  0.50000000       0.062
   0.50000000  0.50000000  0.50000000       0.031
 
 position of ions in fractional coordinates (direct lattice) 
   0.00194700  0.99920000  0.09682900
   0.00239520  0.99743360  0.38110470
   0.49880600  0.99647600  0.09614500
   0.50408417  0.99260766  0.37987200
   0.74316000  0.99645900  0.09443100
   0.75573886  0.99555891  0.38548495
   0.24913600  0.25322600  0.09681000
   0.25197968  0.24489887  0.38224190
   0.08873200  0.16149400  0.19059200
   0.32962600  0.16609800  0.19506300
   0.16484507  0.07884891  0.28892327
   0.58333000  0.16550300  0.19443700
   0.41495294  0.08276527  0.29199051
   0.82651500  0.16651000  0.19326300
   0.66836916  0.08156849  0.28967341
   0.00320800  0.51090900  0.09451300
   0.00501183  0.50044886  0.37670758
   0.25586900  0.50577700  0.09734600
   0.24987833  0.48893796  0.38528151
   0.49960200  0.50304900  0.09754100
   0.50397055  0.49617182  0.37557483
   0.33859900  0.41583700  0.18939300
   0.75679100  0.50804300  0.09630900
   0.75244721  0.49462623  0.39422314
   0.58633600  0.42229400  0.19423600
   0.41691978  0.33487749  0.28464790
   0.82677100  0.41676200  0.19199500
   0.67001017  0.33402359  0.29393337
   0.99180600  0.74702800  0.09571300
   0.00957453  0.75407878  0.38830735
   0.25104600  0.74563900  0.09703600
   0.25349490  0.74893127  0.38880810
   0.08604600  0.67086900  0.19220200
   0.50153700  0.74905700  0.09752900
   0.50562361  0.74632165  0.38544027
   0.33005900  0.66135600  0.19018600
   0.16987350  0.57834373  0.28572656
   0.74777500  0.74863100  0.09404500
   0.75122158  0.75147071  0.38760229
   0.58008200  0.66096300  0.19152700
   0.83213700  0.66199500  0.19303500
   0.67278122  0.58426161  0.28790791
   0.91740013  0.58246317  0.28914855
   0.08603600  0.91635500  0.19371200
   0.32743000  0.91932200  0.19293700
   0.16693514  0.82889141  0.29190892
   0.66516964  0.83047002  0.28802353
   0.91846202  0.83395249  0.28634886
   0.24916500  0.99813100  0.09559800
   0.25395395  0.99415545  0.38862501
   0.00129700  0.24974200  0.09658600
   0.01054918  0.25095977  0.38149475
   0.49933100  0.25162700  0.09537300
   0.49943323  0.24523300  0.38981162
   0.74944200  0.25071300  0.09573100
   0.75625020  0.24406771  0.38902278
   0.92020115  0.08405267  0.28609230
   0.08260800  0.41708000  0.19225300
   0.16958545  0.33179732  0.28609344
   0.91477262  0.32927695  0.28658473
   0.41611970  0.58088545  0.28598090
   0.58190700  0.91526900  0.19241300
   0.41575005  0.82763962  0.28630562
   0.83399900  0.91457100  0.19240400
   0.84174336  0.67762392  0.44155364
   0.31582843  0.16340837  0.44134211
   0.33666659  0.65760548  0.43918966
   0.85096961  0.15363135  0.43937594
   0.67133300  0.32623539  0.45470022
   0.67482002  0.32599878  0.50040310
 
 position of ions in cartesian coordinates  (Angst):
  -5.03208300  8.74992291  2.05920715
  -5.01862043  8.73445468  8.10473642
   0.00574341  8.72606903  2.04466091
   0.07867196  8.69219427  8.07852129
   2.47664659  8.72592017  2.00821025
   2.60839008  8.71803818  8.19788862
   1.23890724  2.21748196  2.05880309
   1.30976187  2.14456190  8.12892055
   0.08074137  1.41419140  4.05321143
   2.49329539  1.45450830  4.14829364
   1.26820689  0.69047424  6.14436656
   5.06166458  1.44929793  4.13498085
   3.77740474  0.72476954  6.20959578
   7.51557011  1.45811616  4.11001406
   6.34590640  0.71428945  6.16031940
  -2.55062328  4.47399356  2.00995410
  -2.47949909  4.38239484  8.01122531
   0.03013771  4.42905300  2.07020189
   0.05469740  4.28159473  8.19356229
   2.50846789  4.40516410  2.07434885
   2.58741079  4.34494117  7.98713584
   1.32139286  3.64145486  4.02771298
   5.08381916  4.44889620  2.04814861
   5.10772913  4.33140647  8.38371887
   3.79377235  3.69799834  4.13070630
   2.52265993  2.93249818  6.05344461
   6.25293088  3.64955501  4.08304823
   5.08613341  2.92502070  6.25091337
   6.25193994  6.54167075  2.03547381
  -3.71566874  6.60341396  8.25791101
  -1.23132858  6.52950737  2.06360930
  -1.22321132  6.55833754  8.26856032
  -2.52172424  5.87475183  4.08745038
   1.28426296  6.55943855  2.07409365
   1.33941469  6.53548531  8.19693852
  -0.00625910  5.79144717  4.04457726
  -1.20630094  5.06451469  6.07638379
   3.77628428  6.55570810  2.00000141
   3.79677774  6.58057526  8.24291698
   2.52386790  5.78800570  4.07309554
   5.06733720  5.79704285  4.10516532
   3.84899617  5.11633709  6.12277351
   6.33158462  5.10058829  6.14915740
  -3.76295716  8.02445517  4.11956269
  -1.33707095  8.05043698  4.10308120
  -2.50273531  7.25854278  6.20786054
   2.52724653  7.27236653  6.12523215
   5.07083858  7.30286231  6.08961789
  -2.52690139  8.74056175  2.03302818
  -2.45837767  8.70574815  8.26466650
  -1.24953457  2.18697282  2.05403941
  -1.16213675  2.19763679  8.11303142
   3.77687076  2.20347964  2.02824323
   3.81023139  2.14748780  8.28990147
   6.31052166  2.19547580  2.03585661
   6.41296100  2.13728350  8.27312581
   8.87977878  0.73604321  6.08416186
  -1.27337779  3.65233972  4.08853497
   0.03727939  2.90552542  6.08418601
   7.58507895  2.88345467  6.09463411
   1.27079901  5.08677236  6.08179288
   1.25659754  8.01494515  4.09193760
   0.01951787  7.24758095  6.08869838
   3.80918753  8.00883281  4.09174620
   5.08545628  5.93390414  9.39026949
   2.36737780  1.43095539  9.38577101
   0.07951635  5.75860410  9.33999614
   7.82795815  1.34533876  9.34395771
   5.13888518  2.85681995  9.66985029
   5.17534084  2.85474799 10.64178749
 


--------------------------------------------------------------------------------------------------------


 k-point  1 :   0.0000 0.0000 0.0000  plane waves:   50761
 k-point  2 :   0.2500 0.0000 0.0000  plane waves:   50693
 k-point  3 :   0.5000 0.0000 0.0000  plane waves:   50702
 k-point  4 :   0.0000 0.2500 0.0000  plane waves:   50693
 k-point  5 :   0.2500 0.2500 0.0000  plane waves:   50697
 k-point  6 :   0.5000 0.2500 0.0000  plane waves:   50697
 k-point  7 :  -0.2500 0.2500 0.0000  plane waves:   50693
 k-point  8 :   0.0000 0.5000 0.0000  plane waves:   50702
 k-point  9 :   0.2500 0.5000 0.0000  plane waves:   50697
 k-point 10 :   0.5000 0.5000 0.0000  plane waves:   50702
 k-point 11 :   0.0000 0.0000 0.5000  plane waves:   50672
 k-point 12 :   0.2500 0.0000 0.5000  plane waves:   50666
 k-point 13 :   0.5000 0.0000 0.5000  plane waves:   50696
 k-point 14 :   0.0000 0.2500 0.5000  plane waves:   50666
 k-point 15 :   0.2500 0.2500 0.5000  plane waves:   50720
 k-point 16 :   0.5000 0.2500 0.5000  plane waves:   50720
 k-point 17 :  -0.2500 0.2500 0.5000  plane waves:   50666
 k-point 18 :   0.0000 0.5000 0.5000  plane waves:   50696
 k-point 19 :   0.2500 0.5000 0.5000  plane waves:   50720
 k-point 20 :   0.5000 0.5000 0.5000  plane waves:   50696

 maximum and minimum number of plane-waves per node :      2141     2086

 maximum number of plane-waves:     50761
 maximum index in each direction: 
   IXMAX=   19   IYMAX=   18   IZMAX=   39
   IXMIN=  -19   IYMIN=  -19   IZMIN=  -40


 real space projection operators:
  total allocation   :      70058.59 KBytes
  max/ min on nodes  :       3501.51       2625.09


 parallel 3D FFT for wavefunctions:
    minimum data exchange during FFTs selected (reduces bandwidth)
 parallel 3D FFT for charge:
    minimum data exchange during FFTs selected (reduces bandwidth)


 total amount of memory used by VASP MPI-rank0   246832. kBytes
=======================================================================

   base      :      30000. kBytes
   nonlr-proj:      14137. kBytes
   fftplans  :       6403. kBytes
   grid      :      18928. kBytes
   one-center:         93. kBytes
   wavefun   :     177271. kBytes
 
     INWAV:  cpu time    0.0000: real time    0.0002
 initial charge density was supplied:
 number of electron     575.0000075 magnetization     122.6124217
 keeping initial charge density in first step


--------------------------------------------------------------------------------------------------------


 Maximum index for non-local projection operator          765
 Maximum index for augmentation-charges         1131 (set IRDMAX)


--------------------------------------------------------------------------------------------------------


 First call to EWALD:  gamma=   0.144
 Maximum number of real-space cells 4x 4x 2
 Maximum number of reciprocal cells 2x 2x 4

    FEWALD:  cpu time    0.0034: real time    0.0034


--------------------------------------- Iteration      1(   1)  ---------------------------------------


    POTLOK:  cpu time    0.4139: real time    0.4838
    SETDIJ:  cpu time    0.0260: real time    0.0273
     EDDAV:  cpu time  139.6860: real time  139.7608
 BZINTS: Fermi energy: 10.988147;575.000000 electrons
         Band energy:3699.303815;  BLOECHL correction: -0.010352
       DOS:  cpu time    0.2250: real time    0.2250
    --------------------------------------------
      LOOP:  cpu time  140.3509: real time  140.4970

 eigenvalue-minimisations  : 30480
 total energy-change (2. order) : 0.4848270E+04  (-0.2472150E+05)
 number of electron     575.0000075 magnetization     122.6124217
 augmentation part      575.0000075 magnetization     122.6124217

 DIPCOR: dipole corrections for dipol
 direction  3 min pos   248,
 dipolmoment           0.000000      0.000000      0.037589 electrons x Angstroem
 Tr[quadrupol]    -10015.776247

 energy correction for charged system         0.000000 eV
 dipol+quadrupol energy correction           -0.000068 eV
 added-field ion interaction          0.888140 eV  (added to PSCEN)


 Free energy of the ion-electron system (eV)
  ---------------------------------------------------
  alpha Z        PSCENC =      1552.39466401
  Ewald energy   TEWEN  =    174031.92055102
  -Hartree energ DENC   =   -221674.19913507
  -exchange      EXHF   =         0.00000000
  -V(xc)+E(xc)   XCENC  =       841.77897773
  PAW double counting   =     54698.20152814   -56245.15042246
  entropy T*S    EENTRO =         0.00000000
  eigenvalues    EBANDS =      3699.30381495
  atomic energy  EATOM  =     47944.02028770
  Solvation  Ediel_sol  =         0.00000000
  ---------------------------------------------------
  free energy    TOTEN  =      4848.27026604 eV

  energy without entropy =     4848.27026604  energy(sigma->0) =     4848.27026604


--------------------------------------------------------------------------------------------------------




--------------------------------------- Iteration      1(   2)  ---------------------------------------


     EDDAV:  cpu time  139.9517: real time  139.9935
 BZINTS: Fermi energy:  1.220564;575.000000 electrons
         Band energy:***********;  BLOECHL correction: -0.008391
       DOS:  cpu time    0.2200: real time    0.2201
    --------------------------------------------
      LOOP:  cpu time  140.1717: real time  140.2136

 eigenvalue-minimisations  : 30489
 total energy-change (2. order) :-0.4759801E+04  (-0.4512218E+04)
 number of electron     575.0000075 magnetization     122.6124217
 augmentation part      575.0000075 magnetization     122.6124217

 DIPCOR: dipole corrections for dipol
 direction  3 min pos   248,
 dipolmoment           0.000000      0.000000      0.037589 electrons x Angstroem
 Tr[quadrupol]    -10015.776247

 energy correction for charged system         0.000000 eV
 dipol+quadrupol energy correction           -0.000068 eV
 added-field ion interaction          0.888140 eV  (added to PSCEN)


 Free energy of the ion-electron system (eV)
  ---------------------------------------------------
  alpha Z        PSCENC =      1552.39466401
  Ewald energy   TEWEN  =    174031.92055102
  -Hartree energ DENC   =   -221674.19913507
  -exchange      EXHF   =         0.00000000
  -V(xc)+E(xc)   XCENC  =       841.77897773
  PAW double counting   =     54698.20152814   -56245.15042246
  entropy T*S    EENTRO =         0.00000000
  eigenvalues    EBANDS =     -1060.49731038
  atomic energy  EATOM  =     47944.02028770
  Solvation  Ediel_sol  =         0.00000000
  ---------------------------------------------------
  free energy    TOTEN  =        88.46914070 eV

  energy without entropy =       88.46914070  energy(sigma->0) =       88.46914070


--------------------------------------------------------------------------------------------------------




--------------------------------------- Iteration      1(   3)  ---------------------------------------


     EDDAV:  cpu time  153.3292: real time  153.3759
 BZINTS: Fermi energy:  0.061291;575.000000 electrons
         Band energy:***********;  BLOECHL correction: -0.017501
       DOS:  cpu time    0.2035: real time    0.2035
    --------------------------------------------
      LOOP:  cpu time  153.5327: real time  153.5795

 eigenvalue-minimisations  : 34275
 total energy-change (2. order) :-0.5025333E+03  (-0.4413565E+03)
 number of electron     575.0000075 magnetization     122.6124217
 augmentation part      575.0000075 magnetization     122.6124217

 DIPCOR: dipole corrections for dipol
 direction  3 min pos   248,
 dipolmoment           0.000000      0.000000      0.037589 electrons x Angstroem
 Tr[quadrupol]    -10015.776247

 energy correction for charged system         0.000000 eV
 dipol+quadrupol energy correction           -0.000068 eV
 added-field ion interaction          0.888140 eV  (added to PSCEN)


 Free energy of the ion-electron system (eV)
  ---------------------------------------------------
  alpha Z        PSCENC =      1552.39466401
  Ewald energy   TEWEN  =    174031.92055102
  -Hartree energ DENC   =   -221674.19913507
  -exchange      EXHF   =         0.00000000
  -V(xc)+E(xc)   XCENC  =       841.77897773
  PAW double counting   =     54698.20152814   -56245.15042246
  entropy T*S    EENTRO =         0.00000000
  eigenvalues    EBANDS =     -1563.03064878
  atomic energy  EATOM  =     47944.02028770
  Solvation  Ediel_sol  =         0.00000000
  ---------------------------------------------------
  free energy    TOTEN  =      -414.06419770 eV

  energy without entropy =     -414.06419770  energy(sigma->0) =     -414.06419770


--------------------------------------------------------------------------------------------------------




--------------------------------------- Iteration      1(   4)  ---------------------------------------


     EDDAV:  cpu time  227.3653: real time  227.4287
 BZINTS: Fermi energy: -0.117181;575.000000 electrons
         Band energy:***********;  BLOECHL correction: -0.006960
       DOS:  cpu time    0.2067: real time    0.2067
    --------------------------------------------
      LOOP:  cpu time  227.5721: real time  227.6355

 eigenvalue-minimisations  : 55875
 total energy-change (2. order) :-0.7680774E+02  (-0.6958653E+02)
 number of electron     575.0000075 magnetization     122.6124217
 augmentation part      575.0000075 magnetization     122.6124217

 DIPCOR: dipole corrections for dipol
 direction  3 min pos   248,
 dipolmoment           0.000000      0.000000      0.037589 electrons x Angstroem
 Tr[quadrupol]    -10015.776247

 energy correction for charged system         0.000000 eV
 dipol+quadrupol energy correction           -0.000068 eV
 added-field ion interaction          0.888140 eV  (added to PSCEN)


 Free energy of the ion-electron system (eV)
  ---------------------------------------------------
  alpha Z        PSCENC =      1552.39466401
  Ewald energy   TEWEN  =    174031.92055102
  -Hartree energ DENC   =   -221674.19913507
  -exchange      EXHF   =         0.00000000
  -V(xc)+E(xc)   XCENC  =       841.77897773
  PAW double counting   =     54698.20152814   -56245.15042246
  entropy T*S    EENTRO =         0.00000000
  eigenvalues    EBANDS =     -1639.83838899
  atomic energy  EATOM  =     47944.02028770
  Solvation  Ediel_sol  =         0.00000000
  ---------------------------------------------------
  free energy    TOTEN  =      -490.87193791 eV

  energy without entropy =     -490.87193791  energy(sigma->0) =     -490.87193791


--------------------------------------------------------------------------------------------------------




--------------------------------------- Iteration      1(   5)  ---------------------------------------


     EDDAV:  cpu time  185.2483: real time  185.3048
 BZINTS: Fermi energy: -0.142233;575.000000 electrons
         Band energy:***********;  BLOECHL correction: -0.005671
       DOS:  cpu time    0.2114: real time    0.2114
    --------------------------------------------
      LOOP:  cpu time  185.4597: real time  185.5162

 eigenvalue-minimisations  : 43635
 total energy-change (2. order) :-0.5456719E+01  (-0.5257664E+01)
 number of electron     575.0000075 magnetization     122.6124217
 augmentation part      575.0000075 magnetization     122.6124217

 DIPCOR: dipole corrections for dipol
 direction  3 min pos   248,
 dipolmoment           0.000000      0.000000      0.037589 electrons x Angstroem
 Tr[quadrupol]    -10015.776247

 energy correction for charged system         0.000000 eV
 dipol+quadrupol energy correction           -0.000068 eV
 added-field ion interaction          0.888140 eV  (added to PSCEN)


 Free energy of the ion-electron system (eV)
  ---------------------------------------------------
  alpha Z        PSCENC =      1552.39466401
  Ewald energy   TEWEN  =    174031.92055102
  -Hartree energ DENC   =   -221674.19913507
  -exchange      EXHF   =         0.00000000
  -V(xc)+E(xc)   XCENC  =       841.77897773
  PAW double counting   =     54698.20152814   -56245.15042246
  entropy T*S    EENTRO =         0.00000000
  eigenvalues    EBANDS =     -1645.29510832
  atomic energy  EATOM  =     47944.02028770
  Solvation  Ediel_sol  =         0.00000000
  ---------------------------------------------------
  free energy    TOTEN  =      -496.32865723 eV

  energy without entropy =     -496.32865723  energy(sigma->0) =     -496.32865723


--------------------------------------------------------------------------------------------------------




--------------------------------------- Iteration      1(   6)  ---------------------------------------


    EDDIAG:  cpu time   20.7664: real time   20.7821
  RMM-DIIS:  cpu time   76.2114: real time   76.2330
    ORTHCH:  cpu time    5.6382: real time    5.6391
 BZINTS: Fermi energy: -0.143145;575.000000 electrons
         Band energy:***********;  BLOECHL correction: -0.005665
       DOS:  cpu time    0.2068: real time    0.2068
    --------------------------------------------
      LOOP:  cpu time  102.8228: real time  102.8611

 eigenvalue-minimisations  : 31255
 total energy-change (2. order) :-0.1080363E+00  (-0.1080433E+00)
 number of electron     575.0000075 magnetization     122.6124217
 augmentation part      575.0000075 magnetization     122.6124217

 DIPCOR: dipole corrections for dipol
 direction  3 min pos   248,
 dipolmoment           0.000000      0.000000      0.037589 electrons x Angstroem
 Tr[quadrupol]    -10015.776247

 energy correction for charged system         0.000000 eV
 dipol+quadrupol energy correction           -0.000068 eV
 added-field ion interaction          0.888140 eV  (added to PSCEN)


 Free energy of the ion-electron system (eV)
  ---------------------------------------------------
  alpha Z        PSCENC =      1552.39466401
  Ewald energy   TEWEN  =    174031.92055102
  -Hartree energ DENC   =   -221674.19913507
  -exchange      EXHF   =         0.00000000
  -V(xc)+E(xc)   XCENC  =       841.77897773
  PAW double counting   =     54698.20152814   -56245.15042246
  entropy T*S    EENTRO =         0.00000000
  eigenvalues    EBANDS =     -1645.40314458
  atomic energy  EATOM  =     47944.02028770
  Solvation  Ediel_sol  =         0.00000000
  ---------------------------------------------------
  free energy    TOTEN  =      -496.43669350 eV

  energy without entropy =     -496.43669350  energy(sigma->0) =     -496.43669350


--------------------------------------------------------------------------------------------------------




--------------------------------------- Iteration      1(   7)  ---------------------------------------


    EDDIAG:  cpu time   20.7444: real time   20.7591
  RMM-DIIS:  cpu time  113.0446: real time  113.0745
    ORTHCH:  cpu time    5.6378: real time    5.6389
 BZINTS: Fermi energy: -0.143462;575.000000 electrons
         Band energy:***********;  BLOECHL correction: -0.005684
       DOS:  cpu time    0.2126: real time    0.2127
    --------------------------------------------
      LOOP:  cpu time  139.6394: real time  139.6852

 eigenvalue-minimisations  : 47376
 total energy-change (2. order) :-0.2370558E-01  (-0.2378009E-01)
 number of electron     575.0000075 magnetization     122.6124217
 augmentation part      575.0000075 magnetization     122.6124217

 DIPCOR: dipole corrections for dipol
 direction  3 min pos   248,
 dipolmoment           0.000000      0.000000      0.037589 electrons x Angstroem
 Tr[quadrupol]    -10015.776247

 energy correction for charged system         0.000000 eV
 dipol+quadrupol energy correction           -0.000068 eV
 added-field ion interaction          0.888140 eV  (added to PSCEN)


 Free energy of the ion-electron system (eV)
  ---------------------------------------------------
  alpha Z        PSCENC =      1552.39466401
  Ewald energy   TEWEN  =    174031.92055102
  -Hartree energ DENC   =   -221674.19913507
  -exchange      EXHF   =         0.00000000
  -V(xc)+E(xc)   XCENC  =       841.77897773
  PAW double counting   =     54698.20152814   -56245.15042246
  entropy T*S    EENTRO =         0.00000000
  eigenvalues    EBANDS =     -1645.42685016
  atomic energy  EATOM  =     47944.02028770
  Solvation  Ediel_sol  =         0.00000000
  ---------------------------------------------------
  free energy    TOTEN  =      -496.46039907 eV

  energy without entropy =     -496.46039907  energy(sigma->0) =     -496.46039907


--------------------------------------------------------------------------------------------------------




--------------------------------------- Iteration      1(   8)  ---------------------------------------


    EDDIAG:  cpu time   20.7662: real time   20.7699
  RMM-DIIS:  cpu time  133.2874: real time  133.3135
    ORTHCH:  cpu time    5.6402: real time    5.6410
 BZINTS: Fermi energy: -0.143453;575.000000 electrons
         Band energy:***********;  BLOECHL correction: -0.005682
       DOS:  cpu time    0.2073: real time    0.2073
    --------------------------------------------
      LOOP:  cpu time  159.9011: real time  159.9317

 eigenvalue-minimisations  : 55896
 total energy-change (2. order) : 0.1078947E-02  (-0.1332477E-02)
 number of electron     575.0000075 magnetization     122.6124217
 augmentation part      575.0000075 magnetization     122.6124217

 DIPCOR: dipole corrections for dipol
 direction  3 min pos   248,
 dipolmoment           0.000000      0.000000      0.037589 electrons x Angstroem
 Tr[quadrupol]    -10015.776247

 energy correction for charged system         0.000000 eV
 dipol+quadrupol energy correction           -0.000068 eV
 added-field ion interaction          0.888140 eV  (added to PSCEN)


 Free energy of the ion-electron system (eV)
  ---------------------------------------------------
  alpha Z        PSCENC =      1552.39466401
  Ewald energy   TEWEN  =    174031.92055102
  -Hartree energ DENC   =   -221674.19913507
  -exchange      EXHF   =         0.00000000
  -V(xc)+E(xc)   XCENC  =       841.77897773
  PAW double counting   =     54698.20152814   -56245.15042246
  entropy T*S    EENTRO =         0.00000000
  eigenvalues    EBANDS =     -1645.42577121
  atomic energy  EATOM  =     47944.02028770
  Solvation  Ediel_sol  =         0.00000000
  ---------------------------------------------------
  free energy    TOTEN  =      -496.45932013 eV

  energy without entropy =     -496.45932013  energy(sigma->0) =     -496.45932013


--------------------------------------------------------------------------------------------------------




--------------------------------------- Iteration      1(   9)  ---------------------------------------


    EDDIAG:  cpu time   20.8034: real time   20.8204
  RMM-DIIS:  cpu time  131.5646: real time  131.5905
    ORTHCH:  cpu time    5.6363: real time    5.6371
 BZINTS: Fermi energy: -0.143456;575.000000 electrons
         Band energy:***********;  BLOECHL correction: -0.005681
       DOS:  cpu time    0.2062: real time    0.2062
    --------------------------------------------
      LOOP:  cpu time  158.2105: real time  158.2542

 eigenvalue-minimisations  : 55200
 total energy-change (2. order) :-0.2029333E-03  (-0.3371651E-03)
 number of electron     575.0000075 magnetization     122.6124217
 augmentation part      575.0000075 magnetization     122.6124217

 DIPCOR: dipole corrections for dipol
 direction  3 min pos   248,
 dipolmoment           0.000000      0.000000      0.037589 electrons x Angstroem
 Tr[quadrupol]    -10015.776247

 energy correction for charged system         0.000000 eV
 dipol+quadrupol energy correction           -0.000068 eV
 added-field ion interaction          0.888140 eV  (added to PSCEN)


 Free energy of the ion-electron system (eV)
  ---------------------------------------------------
  alpha Z        PSCENC =      1552.39466401
  Ewald energy   TEWEN  =    174031.92055102
  -Hartree energ DENC   =   -221674.19913507
  -exchange      EXHF   =         0.00000000
  -V(xc)+E(xc)   XCENC  =       841.77897773
  PAW double counting   =     54698.20152814   -56245.15042246
  entropy T*S    EENTRO =         0.00000000
  eigenvalues    EBANDS =     -1645.42597414
  atomic energy  EATOM  =     47944.02028770
  Solvation  Ediel_sol  =         0.00000000
  ---------------------------------------------------
  free energy    TOTEN  =      -496.45952306 eV

  energy without entropy =     -496.45952306  energy(sigma->0) =     -496.45952306


--------------------------------------------------------------------------------------------------------




--------------------------------------- Iteration      1(  10)  ---------------------------------------


    EDDIAG:  cpu time   20.7869: real time   20.8023
  RMM-DIIS:  cpu time  104.7209: real time  104.7430
    ORTHCH:  cpu time    5.6486: real time    5.6495
 BZINTS: Fermi energy: -0.143457;575.000000 electrons
         Band energy:***********;  BLOECHL correction: -0.005681
       DOS:  cpu time    0.2126: real time    0.2126
    --------------------------------------------
      LOOP:  cpu time  131.3690: real time  131.4075

 eigenvalue-minimisations  : 43534
 total energy-change (2. order) :-0.2153119E-04  (-0.7726768E-04)
 number of electron     575.0000075 magnetization     122.6124217
 augmentation part      575.0000075 magnetization     122.6124217

 DIPCOR: dipole corrections for dipol
 direction  3 min pos   248,
 dipolmoment           0.000000      0.000000      0.037589 electrons x Angstroem
 Tr[quadrupol]    -10015.776247

 energy correction for charged system         0.000000 eV
 dipol+quadrupol energy correction           -0.000068 eV
 added-field ion interaction          0.888140 eV  (added to PSCEN)


 Free energy of the ion-electron system (eV)
  ---------------------------------------------------
  alpha Z        PSCENC =      1552.39466401
  Ewald energy   TEWEN  =    174031.92055102
  -Hartree energ DENC   =   -221674.19913507
  -exchange      EXHF   =         0.00000000
  -V(xc)+E(xc)   XCENC  =       841.77897773
  PAW double counting   =     54698.20152814   -56245.15042246
  entropy T*S    EENTRO =         0.00000000
  eigenvalues    EBANDS =     -1645.42599567
  atomic energy  EATOM  =     47944.02028770
  Solvation  Ediel_sol  =         0.00000000
  ---------------------------------------------------
  free energy    TOTEN  =      -496.45954459 eV

  energy without entropy =     -496.45954459  energy(sigma->0) =     -496.45954459


--------------------------------------------------------------------------------------------------------




--------------------------------------- Iteration      1(  11)  ---------------------------------------


    EDDIAG:  cpu time   20.7518: real time   20.7668
  RMM-DIIS:  cpu time   83.6257: real time   83.6424
    ORTHCH:  cpu time    5.6364: real time    5.6372
 BZINTS: Fermi energy: -0.143457;575.000000 electrons
         Band energy:***********;  BLOECHL correction: -0.005681
       DOS:  cpu time    0.1915: real time    0.1915
    --------------------------------------------
      LOOP:  cpu time  110.2053: real time  110.2379

 eigenvalue-minimisations  : 34313
 total energy-change (2. order) :-0.3244873E-05  (-0.2084514E-04)
 number of electron     575.0000075 magnetization     122.6124217
 augmentation part      575.0000075 magnetization     122.6124217

 DIPCOR: dipole corrections for dipol
 direction  3 min pos   248,
 dipolmoment           0.000000      0.000000      0.037589 electrons x Angstroem
 Tr[quadrupol]    -10015.776247

 energy correction for charged system         0.000000 eV
 dipol+quadrupol energy correction           -0.000068 eV
 added-field ion interaction          0.888140 eV  (added to PSCEN)


 Free energy of the ion-electron system (eV)
  ---------------------------------------------------
  alpha Z        PSCENC =      1552.39466401
  Ewald energy   TEWEN  =    174031.92055102
  -Hartree energ DENC   =   -221674.19913507
  -exchange      EXHF   =         0.00000000
  -V(xc)+E(xc)   XCENC  =       841.77897773
  PAW double counting   =     54698.20152814   -56245.15042246
  entropy T*S    EENTRO =         0.00000000
  eigenvalues    EBANDS =     -1645.42599892
  atomic energy  EATOM  =     47944.02028770
  Solvation  Ediel_sol  =         0.00000000
  ---------------------------------------------------
  free energy    TOTEN  =      -496.45954784 eV

  energy without entropy =     -496.45954784  energy(sigma->0) =     -496.45954784


--------------------------------------------------------------------------------------------------------




--------------------------------------- Iteration      1(  12)  ---------------------------------------


    EDDIAG:  cpu time   20.7595: real time   20.7737
  RMM-DIIS:  cpu time   68.3381: real time   68.3513
    ORTHCH:  cpu time    5.6401: real time    5.6411
 BZINTS: Fermi energy: -0.143457;575.000000 electrons
         Band energy:***********;  BLOECHL correction: -0.005681
       DOS:  cpu time    0.1962: real time    0.1962
    --------------------------------------------
      LOOP:  cpu time   94.9338: real time   94.9622

 eigenvalue-minimisations  : 27546
 total energy-change (2. order) :-0.3747642E-05  (-0.8117847E-05)
 number of electron     575.0000075 magnetization     122.6124217
 augmentation part      575.0000075 magnetization     122.6124217

 DIPCOR: dipole corrections for dipol
 direction  3 min pos   248,
 dipolmoment           0.000000      0.000000      0.037589 electrons x Angstroem
 Tr[quadrupol]    -10015.776247

 energy correction for charged system         0.000000 eV
 dipol+quadrupol energy correction           -0.000068 eV
 added-field ion interaction          0.888140 eV  (added to PSCEN)


 Free energy of the ion-electron system (eV)
  ---------------------------------------------------
  alpha Z        PSCENC =      1552.39466401
  Ewald energy   TEWEN  =    174031.92055102
  -Hartree energ DENC   =   -221674.19913507
  -exchange      EXHF   =         0.00000000
  -V(xc)+E(xc)   XCENC  =       841.77897773
  PAW double counting   =     54698.20152814   -56245.15042246
  entropy T*S    EENTRO =         0.00000000
  eigenvalues    EBANDS =     -1645.42600267
  atomic energy  EATOM  =     47944.02028770
  Solvation  Ediel_sol  =         0.00000000
  ---------------------------------------------------
  free energy    TOTEN  =      -496.45955158 eV

  energy without entropy =     -496.45955158  energy(sigma->0) =     -496.45955158


--------------------------------------------------------------------------------------------------------




--------------------------------------- Iteration      1(  13)  ---------------------------------------


    EDDIAG:  cpu time   20.7599: real time   20.7751
  RMM-DIIS:  cpu time   63.4842: real time   63.4961
    ORTHCH:  cpu time    5.6400: real time    5.6408
 BZINTS: Fermi energy: -0.143457;575.000000 electrons
         Band energy:***********;  BLOECHL correction: -0.005681
       DOS:  cpu time    0.2110: real time    0.2110
    --------------------------------------------
      LOOP:  cpu time   90.0951: real time   90.1230

 eigenvalue-minimisations  : 25324
 total energy-change (2. order) :-0.3143214E-07  (-0.2301644E-05)
 number of electron     575.0000075 magnetization     122.6124217
 augmentation part      575.0000075 magnetization     122.6124217

 DIPCOR: dipole corrections for dipol
 direction  3 min pos   248,
 dipolmoment           0.000000      0.000000      0.037589 electrons x Angstroem
 Tr[quadrupol]    -10015.776247

 energy correction for charged system         0.000000 eV
 dipol+quadrupol energy correction           -0.000068 eV
 added-field ion interaction          0.888140 eV  (added to PSCEN)


 Free energy of the ion-electron system (eV)
  ---------------------------------------------------
  alpha Z        PSCENC =      1552.39466401
  Ewald energy   TEWEN  =    174031.92055102
  -Hartree energ DENC   =   -221674.19913507
  -exchange      EXHF   =         0.00000000
  -V(xc)+E(xc)   XCENC  =       841.77897773
  PAW double counting   =     54698.20152814   -56245.15042246
  entropy T*S    EENTRO =         0.00000000
  eigenvalues    EBANDS =     -1645.42600270
  atomic energy  EATOM  =     47944.02028770
  Solvation  Ediel_sol  =         0.00000000
  ---------------------------------------------------
  free energy    TOTEN  =      -496.45955162 eV

  energy without entropy =     -496.45955162  energy(sigma->0) =     -496.45955162


--------------------------------------------------------------------------------------------------------




--------------------------------------- Iteration      1(  14)  ---------------------------------------


    EDDIAG:  cpu time   20.7619: real time   20.7758
  RMM-DIIS:  cpu time   58.4327: real time   58.4470
    ORTHCH:  cpu time    5.6424: real time    5.6433
 BZINTS: Fermi energy: -0.143457;575.000000 electrons
         Band energy:***********;  BLOECHL correction: -0.005681
       DOS:  cpu time    0.2068: real time    0.2068
    --------------------------------------------
      LOOP:  cpu time   85.0437: real time   85.0729

 eigenvalue-minimisations  : 22938
 total energy-change (2. order) :-0.3487803E-06  (-0.9341637E-06)
 number of electron     575.0000075 magnetization     122.6124217
 augmentation part      575.0000075 magnetization     122.6124217

 DIPCOR: dipole corrections for dipol
 direction  3 min pos   248,
 dipolmoment           0.000000      0.000000      0.037589 electrons x Angstroem
 Tr[quadrupol]    -10015.776247

 energy correction for charged system         0.000000 eV
 dipol+quadrupol energy correction           -0.000068 eV
 added-field ion interaction          0.888140 eV  (added to PSCEN)


 Free energy of the ion-electron system (eV)
  ---------------------------------------------------
  alpha Z        PSCENC =      1552.39466401
  Ewald energy   TEWEN  =    174031.92055102
  -Hartree energ DENC   =   -221674.19913507
  -exchange      EXHF   =         0.00000000
  -V(xc)+E(xc)   XCENC  =       841.77897773
[...]
   0.381E+02 -.239E+02 0.809E+03   -.378E+02 0.230E+02 -.807E+03   -.213E+00 -.828E-01 -.409E+00   -.283E+00 0.596E+00 -.799E+00
   0.861E+00 0.902E+01 0.213E+04   -.838E+00 -.878E+01 -.213E+04   -.110E+00 0.437E-01 -.195E+01   0.386E-01 0.395E-01 -.668E+00
   -.953E+02 -.424E+02 -.188E+04   0.972E+02 0.434E+02 0.188E+04   -.191E+01 -.121E+01 0.200E+01   0.257E-01 0.172E+00 -.226E+00
   0.210E+02 -.310E+02 0.874E+03   -.205E+02 0.311E+02 -.873E+03   0.243E+00 0.198E+00 0.242E+00   -.519E+00 0.101E+00 -.625E+00
   0.566E+02 -.786E+02 -.506E+03   -.567E+02 0.789E+02 0.506E+03   0.301E+00 -.374E+00 0.407E+00   -.201E+00 0.174E-01 -.741E+00
   -.889E+01 0.921E+01 0.214E+04   0.852E+01 -.946E+01 -.213E+04   -.741E-02 0.185E+00 -.236E+01   0.472E+00 0.443E+00 -.608E+00
   0.834E+02 -.320E+02 -.184E+04   -.855E+02 0.328E+02 0.184E+04   0.194E+01 -.103E+01 0.248E+01   0.112E+00 0.231E+00 -.122E+00
   -.435E+02 0.454E+01 0.839E+03   0.436E+02 -.503E+01 -.838E+03   0.275E-01 0.264E+00 0.138E-01   0.871E-01 0.526E+00 -.823E+00
   -.183E+02 -.696E+00 0.798E+03   0.177E+02 -.411E+00 -.797E+03   -.154E+00 0.800E+00 -.352E+00   0.683E+00 0.111E+01 -.847E+00
   -.416E+02 -.166E+02 -.519E+03   0.417E+02 0.162E+02 0.519E+03   -.378E+00 0.186E-01 0.341E+00   0.279E+00 0.346E+00 -.364E+00
   0.306E+02 -.540E+02 -.516E+03   -.313E+02 0.540E+02 0.516E+03   0.313E+00 -.204E+00 0.605E+00   0.316E+00 0.213E+00 -.657E+00
   -.184E+02 0.446E+02 0.787E+03   0.185E+02 -.447E+02 -.786E+03   -.145E+00 0.517E-01 -.425E+00   -.165E+00 -.216E+00 -.889E+00
   0.141E+02 0.178E+01 0.797E+03   -.127E+02 -.139E+01 -.795E+03   0.174E+00 -.115E+00 -.198E+00   -.811E+00 -.321E+00 -.756E+00
   0.276E+02 0.246E+02 -.541E+03   -.272E+02 -.249E+02 0.543E+03   0.229E-01 0.173E+00 -.441E+00   -.297E+00 0.126E+00 -.108E+01
   -.396E+02 0.343E+02 -.553E+03   0.395E+02 -.348E+02 0.555E+03   -.874E-01 0.203E+00 -.915E+00   0.134E+00 0.373E+00 -.739E+00
   -.316E+02 0.677E+02 -.514E+03   0.313E+02 -.685E+02 0.516E+03   -.121E+00 0.467E+00 -.276E+00   0.424E+00 0.400E+00 -.123E+01
   0.823E+01 0.327E+02 0.263E+04   -.760E+01 -.323E+02 -.263E+04   0.528E-01 0.150E+00 -.452E+00   -.738E+00 -.371E+00 -.176E+00
   0.947E+01 0.192E+03 -.232E+04   -.921E+01 -.195E+03 0.232E+04   -.270E+00 0.298E+01 0.106E+01   -.196E-01 0.363E+00 -.106E+00
   -.923E+01 0.294E+01 0.266E+04   0.922E+01 -.280E+01 -.266E+04   -.469E+00 0.107E+00 -.116E+01   0.249E+00 -.240E+00 -.622E+00
   -.132E+03 -.777E+02 -.232E+04   0.134E+03 0.793E+02 0.232E+04   -.214E+01 -.141E+01 0.327E+00   -.349E+00 -.217E+00 -.265E+00
   0.107E+02 -.284E+02 0.261E+04   -.106E+02 0.292E+02 -.261E+04   0.196E+00 -.477E+00 -.186E+01   -.269E+00 -.346E+00 -.111E+01
   0.107E+02 -.345E+02 -.222E+04   -.116E+02 0.346E+02 0.222E+04   0.625E+00 0.157E+00 0.260E+01   0.270E+00 -.301E+00 0.233E+00
   0.121E+02 -.195E+02 0.264E+04   -.125E+02 0.195E+02 -.263E+04   0.504E-01 0.436E-01 -.146E+01   0.315E+00 -.186E-01 -.714E+00
   0.302E+02 -.811E+01 -.225E+04   -.296E+02 0.776E+01 0.225E+04   -.657E+00 0.445E+00 0.232E+01   0.627E-02 -.984E-01 -.383E-01
   -.112E+02 0.961E+02 -.592E+03   0.110E+02 -.965E+02 0.592E+03   0.893E-01 0.412E+00 0.681E+00   0.929E-01 -.695E-02 -.799E+00
   0.288E+02 -.429E+02 0.108E+04   -.286E+02 0.428E+02 -.108E+04   -.596E-02 -.208E+00 -.257E+00   -.267E+00 -.131E-01 -.835E+00
   -.689E+02 -.119E+02 -.591E+03   0.695E+02 0.120E+02 0.592E+03   -.605E-01 0.107E+00 -.680E+00   -.486E+00 -.199E+00 -.516E+00
   0.848E+02 -.676E+02 -.572E+03   -.853E+02 0.679E+02 0.572E+03   0.391E+00 -.224E+00 0.559E+00   0.105E+00 -.171E+00 -.444E+00
   -.501E+02 -.276E+02 -.627E+03   0.506E+02 0.277E+02 0.627E+03   -.273E-01 -.168E+00 0.703E+00   -.497E+00 0.124E+00 -.606E+00
   0.284E+02 0.327E+01 0.104E+04   -.285E+02 -.357E+01 -.104E+04   0.157E+00 0.449E-01 -.227E+00   0.874E-01 0.216E+00 -.738E+00
   0.534E+02 -.168E+02 -.630E+03   -.533E+02 0.170E+02 0.630E+03   0.197E+00 -.132E+00 0.484E+00   -.283E+00 -.537E-01 -.911E+00
   -.307E+02 0.550E+02 0.106E+04   0.294E+02 -.555E+02 -.106E+04   -.518E-01 0.279E+00 -.178E-01   0.104E+01 0.293E+00 -.106E+01
   0.467E+01 -.497E+02 -.185E+04   -.478E+01 0.504E+02 0.187E+04   0.188E-01 -.592E+00 -.259E+02   0.827E-01 -.519E-01 0.356E+00
   0.716E+02 -.286E+01 -.192E+04   -.713E+02 0.294E+01 0.195E+04   -.509E+00 -.421E-01 -.278E+02   0.193E+00 -.716E-01 0.652E-01
   -.819E+01 0.347E+01 -.187E+04   0.896E+01 -.416E+01 0.190E+04   -.647E+00 0.775E+00 -.258E+02   -.122E+00 -.109E+00 0.381E+00
   -.483E+02 0.525E+02 -.193E+04   0.497E+02 -.504E+02 0.195E+04   -.114E+01 -.236E+01 -.272E+02   -.225E+00 0.269E+00 -.489E-01
   0.396E+01 -.212E+02 -.186E+04   -.559E+01 0.189E+02 0.184E+04   0.151E+01 0.267E+01 0.198E+02   0.121E+00 -.383E+00 -.230E-01
   -.294E+01 -.132E+01 -.366E+03   0.324E+01 0.128E+01 0.374E+03   -.306E+00 0.406E-01 -.827E+01   0.579E-02 -.269E-01 0.134E-02
 -----------------------------------------------------------------------------------------------
   0.215E+01 -.124E+01 0.126E+03   -.724E-12 -.373E-12 -.216E-11   -.187E+01 0.168E+01 -.932E+02   -.282E+00 -.435E+00 -.328E+02
 
 
 POSITION                                       TOTAL-FORCE (eV/Angst)
 -----------------------------------------------------------------------------------
     -5.03208      8.74992      2.05921        -0.210273     -0.004678     -0.054537
     -5.01862      8.73445      8.10474         0.008329     -0.000105     -0.000341
      0.00574      8.72607      2.04466        -0.240722      0.373267      0.000909
      0.07867      8.69219      8.07852         0.027006     -0.029902     -0.015032
      2.47665      8.72592      2.00821         0.304097      0.167551      0.123767
      2.60839      8.71804      8.19789        -0.038053     -0.039303      0.014419
      1.23891      2.21748      2.05880         0.399636     -0.194549     -0.363364
      1.30976      2.14456      8.12892         0.011220      0.031048     -0.017069
      0.08074      1.41419      4.05321        -0.772171      0.665360      0.206563
      2.49330      1.45451      4.14829         0.453781      0.189036     -0.743128
      1.26821      0.69047      6.14437        -0.019446      0.025337     -0.017824
      5.06166      1.44930      4.13498        -0.558681      0.227941     -0.449679
      3.77740      0.72477      6.20960        -0.020963      0.014638     -0.012135
      7.51557      1.45812      4.11001         0.627879     -0.127634     -0.424944
      6.34591      0.71429      6.16032        -0.029663      0.019845     -0.002201
     -2.55062      4.47399      2.00995         0.255012     -0.768990      0.266253
     -2.47950      4.38239      8.01123        -0.028590     -0.023892     -0.005267
      0.03014      4.42905      2.07020        -0.371208     -0.613917     -0.254558
      0.05470      4.28159      8.19356         0.007734     -0.030348     -0.029754
      2.50847      4.40516      2.07435         0.395535     -0.461315     -0.135091
      2.58741      4.34494      7.98714         0.000243     -0.002962     -0.001670
      1.32139      3.64145      4.02771        -0.063825     -0.104447      0.460367
      5.08382      4.44890      2.04815        -0.510836     -0.872398     -0.123393
      5.10773      4.33141      8.38372        -0.001447     -0.020145     -0.014023
      3.79377      3.69800      4.13071        -0.657336     -0.668337     -0.344002
      2.52266      2.93250      6.05344        -0.007081      0.002024     -0.011658
      6.25293      3.64956      4.08305         0.675517     -0.091450      0.276060
      5.08613      2.92502      6.25091        -0.010994     -0.035520     -0.030831
      6.25194      6.54167      2.03547         0.406891      0.526702     -0.085785
     -3.71567      6.60341      8.25791         0.007705     -0.006125      0.013692
     -1.23133      6.52951      2.06361        -0.354199      0.388740     -0.563729
     -1.22321      6.55834      8.26856        -0.013083     -0.002472     -0.019489
     -2.52172      5.87475      4.08745        -0.150507     -0.308136      0.141742
      1.28426      6.55944      2.07409        -0.050449      0.313698     -0.426886
      1.33941      6.53549      8.19694         0.029871      0.034782     -0.004099
     -0.00626      5.79145      4.04458         0.213262      0.440718      0.766267
     -1.20630      5.06451      6.07638        -0.005146      0.001942      0.014262
      3.77628      6.55571      2.00000         0.098726      0.379550     -0.089393
      3.79678      6.58058      8.24292        -0.008239     -0.023624     -0.034110
      2.52387      5.78801      4.07310         0.237553      0.298328      0.356423
      5.06734      5.79704      4.10517        -0.092844      0.791166      0.044265
      3.84900      5.11634      6.12277         0.014064     -0.018912     -0.008595
      6.33158      5.10059      6.14916        -0.012578      0.019676      0.010037
     -3.76296      8.02446      4.11956        -0.183653     -0.229963     -0.120200
     -1.33707      8.05044      4.10308         0.728561     -0.045657      0.270205
     -2.50274      7.25854      6.20786         0.028653     -0.004623     -0.028643
      2.52725      7.27237      6.12523         0.003098     -0.005129     -0.031049
      5.07084      7.30286      6.08962        -0.005159     -0.031163      0.024639
     -2.52690      8.74056      2.03303        -0.061397      0.091190      0.398966
     -2.45838      8.70575      8.26467        -0.021800      0.010081      0.006990
     -1.24953      2.18697      2.05404        -0.206799     -0.002815      0.311491
     -1.16214      2.19764      8.11303        -0.006382     -0.002856     -0.018287
      3.77687      2.20348      2.02824        -0.000797      0.050353      0.681112
      3.81023      2.14749      8.28990        -0.006437      0.015780      0.024428
      6.31052      2.19548      2.03586         0.004025      0.015417      0.212606
      6.41296      2.13728      8.27313        -0.010008     -0.009132      0.014192
      8.87978      0.73604      6.08416        -0.015849     -0.017284     -0.008398
     -1.27338      3.65234      4.08853        -0.007827     -0.351240     -0.290981
      0.03728      2.90553      6.08419         0.010166      0.005894      0.002619
      7.58508      2.88345      6.09463         0.009570     -0.012106     -0.006329
      1.27080      5.08677      6.08179        -0.005720      0.004414      0.004802
      1.25660      8.01495      4.09194         0.093932     -0.041671      0.128186
      0.01952      7.24758      6.08870        -0.006859      0.000582     -0.009292
      3.80919      8.00883      4.09175        -0.330996      0.114880     -0.095033
      5.08546      5.93390      9.39027        -0.006375      0.048283      0.055684
      2.36738      1.43096      9.38577         0.035104     -0.026963     -0.000876
      0.07952      5.75860      9.34000         0.000632     -0.023304      0.071243
      7.82796      1.34534      9.34396         0.014500      0.053647     -0.006933
      5.13889      2.85682      9.66985         0.003045     -0.030309     -0.038393
      5.17534      2.85475     10.64179        -0.000956     -0.038495      0.034811
 -----------------------------------------------------------------------------------
    total drift:                                0.000878     -0.002837      0.136312


--------------------------------------------------------------------------------------------------------



  FREE ENERGIE OF THE ION-ELECTRON SYSTEM (eV)
  ---------------------------------------------------
  free  energy   TOTEN  =      -511.25248935 eV

  energy  without entropy=     -511.25248935  energy(sigma->0) =     -511.25248935
 


--------------------------------------------------------------------------------------------------------


    POTLOK:  cpu time    0.4430: real time    0.4431


--------------------------------------------------------------------------------------------------------


 stress matrix after NEB project (eV)
    -24.36451     -0.10936      0.07126
     -0.10936    -22.58064      0.67181
      0.07126      0.67181     -0.37503
  FORCES: max atom, RMS     0.074960    0.027173
  FORCE total and by dimension    0.227342    0.071243
  Stress total and by dimension   33.235401   24.364510
     LOOP+:  cpu time 2044.1167: real time 2044.8695
    4ORBIT:  cpu time    0.0000: real time    0.0000
 


 total charge     
 
# of ion       s       p       d       tot
------------------------------------------
    1        0.479   0.396   6.165   7.040
    2        0.464   0.406   6.204   7.074
    3        0.473   0.388   6.153   7.015
    4        0.476   0.406   6.195   7.077
    5        0.467   0.383   6.153   7.004
    6        0.496   0.553   6.248   7.297
    7        0.479   0.405   6.173   7.057
    8        0.502   0.552   6.273   7.327
    9        0.485   0.519   6.231   7.236
   10        0.495   0.536   6.254   7.284
   11        0.493   0.540   6.258   7.291
   12        0.475   0.503   6.215   7.193
   13        0.477   0.517   6.213   7.208
   14        0.472   0.490   6.184   7.146
   15        0.480   0.516   6.227   7.223
   16        0.474   0.390   6.170   7.034
   17        0.479   0.414   6.204   7.097
   18        0.493   0.422   6.208   7.123
   19        0.470   0.502   6.215   7.187
   20        0.496   0.430   6.205   7.131
   21        0.482   0.428   6.214   7.124
   22        0.498   0.550   6.316   7.365
   23        0.488   0.416   6.198   7.103
   24        0.431   0.536   6.210   7.177
   25        0.493   0.536   6.330   7.359
   26        0.495   0.538   6.249   7.282
   27        0.483   0.516   6.231   7.230
   28        0.471   0.507   6.192   7.170
   29        0.489   0.424   6.197   7.110
   30        0.476   0.519   6.237   7.231
   31        0.490   0.423   6.192   7.105
   32        0.468   0.502   6.225   7.195
   33        0.490   0.533   6.254   7.277
   34        0.494   0.444   6.222   7.161
   35        0.473   0.514   6.238   7.224
   36        0.493   0.536   6.241   7.270
   37        0.480   0.516   6.221   7.217
   38        0.480   0.415   6.175   7.070
   39        0.484   0.527   6.248   7.260
   40        0.493   0.533   6.258   7.285
   41        0.498   0.548   6.265   7.310
   42        0.494   0.541   6.259   7.294
   43        0.487   0.534   6.237   7.257
   44        0.505   0.563   6.160   7.229
   45        0.484   0.515   6.234   7.232
   46        0.486   0.530   6.223   7.239
   47        0.478   0.514   6.197   7.189
   48        0.487   0.530   6.242   7.259
   49        0.502   0.385   8.310   9.197
   50        0.514   0.519   8.328   9.361
   51        0.494   0.374   8.309   9.176
   52        0.506   0.518   8.329   9.354
   53        0.484   0.357   8.307   9.148
   54        0.449   0.504   8.331   9.284
   55        0.500   0.373   8.306   9.178
   56        0.445   0.508   8.327   9.280
   57        0.509   0.520   8.315   9.344
   58        0.508   0.503   8.320   9.330
   59        0.513   0.526   8.310   9.349
   60        0.511   0.515   8.319   9.345
   61        0.522   0.543   8.318   9.383
   62        0.518   0.528   8.317   9.363
   63        0.510   0.528   8.307   9.345
   64        0.511   0.516   8.306   9.334
   65        1.579   3.390   0.000   4.969
   66        1.582   3.343   0.000   4.926
   67        1.578   3.389   0.000   4.968
   68        1.581   3.346   0.000   4.928
   69        1.543   3.555   0.000   5.098
   70        0.605   0.121   0.000   0.726
--------------------------------------------------
tot         39.662  48.321 431.670 519.653
 


 magnetization (x)
 
# of ion       s       p       d       tot
------------------------------------------
    1        0.007  -0.004   2.651   2.654
    2       -0.002  -0.005   2.855   2.848
    3        0.004  -0.009   2.793   2.788
    4       -0.001  -0.003   2.893   2.889
    5        0.002  -0.009   2.783   2.775
    6       -0.003  -0.014   2.359   2.343
    7        0.001  -0.004   2.653   2.649
    8        0.002  -0.009   2.238   2.230
    9       -0.002  -0.017   2.381   2.362
   10       -0.005  -0.019   2.270   2.246
   11       -0.010  -0.031   2.331   2.290
   12       -0.009  -0.032   2.513   2.472
   13       -0.013  -0.038   2.627   2.577
   14       -0.003  -0.016   2.706   2.688
   15       -0.010  -0.032   2.586   2.544
   16       -0.001  -0.010   2.751   2.741
   17       -0.004  -0.010   2.868   2.853
   18       -0.001  -0.014   2.582   2.567
   19        0.004   0.000   2.588   2.593
   20       -0.000  -0.007   2.531   2.524
   21       -0.004  -0.014   2.852   2.833
   22       -0.031  -0.058  -0.403  -0.492
   23       -0.004  -0.014   2.669   2.652
   24       -0.006   0.004   2.667   2.665
   25       -0.029  -0.056   0.126   0.041
   26       -0.005  -0.027   2.346   2.314
   27       -0.009  -0.036   2.488   2.443
   28       -0.001  -0.028   2.597   2.569
   29       -0.003  -0.018   2.598   2.576
   30        0.003  -0.010   2.483   2.476
   31       -0.011  -0.019   2.669   2.638
   32        0.005  -0.007   2.560   2.558
   33       -0.014  -0.041   2.266   2.211
   34       -0.011  -0.033   2.579   2.534
   35        0.003  -0.011   2.515   2.508
   36       -0.010  -0.031   2.474   2.434
   37       -0.010  -0.035   2.605   2.561
   38       -0.009  -0.025   2.663   2.629
   39       -0.002  -0.022   2.343   2.320
   40       -0.007  -0.029   2.373   2.337
   41       -0.011  -0.033   2.252   2.207
   42       -0.015  -0.045   2.312   2.251
   43       -0.019  -0.052   2.532   2.461
   44       -0.044  -0.074  -2.082  -2.200
   45       -0.004  -0.032   2.381   2.344
   46       -0.003  -0.028   2.376   2.344
   47       -0.000  -0.023   2.568   2.545
   48       -0.009  -0.037   2.360   2.314
   49       -0.030  -0.030   0.594   0.534
   50       -0.025  -0.026   0.589   0.539
   51       -0.031  -0.030   0.709   0.648
   52       -0.017  -0.019   0.584   0.548
   53       -0.026  -0.021   0.677   0.630
   54       -0.019  -0.023   0.699   0.657
   55       -0.029  -0.022   0.749   0.699
   56       -0.017  -0.022   0.648   0.608
   57       -0.029  -0.055   0.780   0.696
   58       -0.022  -0.054   0.667   0.590
   59       -0.014  -0.032   0.592   0.546
   60       -0.025  -0.046   0.749   0.679
   61       -0.029  -0.061   0.732   0.642
   62       -0.028  -0.075   0.742   0.640
   63       -0.033  -0.068   0.808   0.708
   64       -0.023  -0.056   0.702   0.623
   65        0.004   0.097   0.000   0.101
   66        0.003   0.081   0.000   0.084
   67        0.004   0.109   0.000   0.113
   68        0.003   0.091   0.000   0.094
   69        0.011   0.117   0.000   0.128
   70        0.003   0.002   0.000   0.005
--------------------------------------------------
tot         -0.673  -1.259 123.149 121.216
 
 BZINTS: Fermi energy: -0.143457;575.000000 electrons
         Band energy:***********;  BLOECHL correction: -0.005681

 total amount of memory used by VASP MPI-rank0   246832. kBytes
=======================================================================

   base      :      30000. kBytes
   nonlr-proj:      14137. kBytes
   fftplans  :       6403. kBytes
   grid      :      18928. kBytes
   one-center:         93. kBytes
   wavefun   :     177271. kBytes
 
  
  
 General timing and accounting informations for this job:
 ========================================================
  
                  Total CPU time used (sec):     2170.139
                            User time (sec):     2070.759
                          System time (sec):       99.380
                         Elapsed time (sec):     2172.928
  
                   Maximum memory used (kb):      495188.
                   Average memory used (kb):           0.
  
                          Minor page faults:     24473363
                          Major page faults:           24
                 Voluntary context switches:         3159
