       N       E                     dE             d eps       ncg     rms          rms(c)
DAV:   1    -0.543224278053E+03   -0.54322E+03   -0.39667E-01 10134   0.360E+00    0.137E+00
RMM:   2    -0.543858129452E+03   -0.63385E+00   -0.48915E-01  7508   0.200E+00    0.585E+00
RMM:   3    -0.543790296527E+03    0.67833E-01   -0.26395E-01  7677   0.109E+00    0.389E+00
RMM:   4    -0.543695847394E+03    0.94449E-01   -0.96380E-02  7423   0.722E-01    0.194E+00
RMM:   5    -0.543684926914E+03    0.10920E-01   -0.24039E-02  7556   0.394E-01    0.834E-01
RMM:   6    -0.543686908376E+03   -0.19815E-02   -0.10619E-02  9384   0.158E-01    0.808E-01
RMM:   7    -0.543689301341E+03   -0.23930E-02   -0.42776E-03 10357   0.832E-02    0.764E-01
RMM:   8    -0.543691324017E+03   -0.20227E-02   -0.49821E-03  7986   0.155E-01    0.788E-01
RMM:   9    -0.543688457388E+03    0.28666E-02   -0.39051E-03  7830   0.152E-01    0.425E-01
RMM:  10    -0.543685554232E+03    0.29032E-02   -0.32053E-03  8288   0.122E-01    0.413E-01
RMM:  11    -0.543680012257E+03    0.55420E-02   -0.16554E-03  8068   0.916E-02    0.281E-01
RMM:  12    -0.543677362642E+03    0.26496E-02   -0.16845E-03  8454   0.846E-02    0.345E-01
RMM:  13    -0.543675570446E+03    0.17922E-02   -0.64383E-04  8046   0.616E-02    0.214E-01
RMM:  14    -0.543676132019E+03   -0.56157E-03   -0.50594E-04  8977   0.419E-02    0.183E-01
RMM:  15    -0.543677826863E+03   -0.16948E-02   -0.34245E-04  8937   0.328E-02    0.121E-01
RMM:  16    -0.543679798031E+03   -0.19712E-02   -0.22881E-04  8737   0.289E-02    0.109E-01
RMM:  17    -0.543686070519E+03   -0.62725E-02   -0.46263E-04  8071   0.333E-02    0.913E-02
RMM:  18    -0.543689279855E+03   -0.32093E-02   -0.33658E-04  8234   0.319E-02    0.765E-02
RMM:  19    -0.543693183909E+03   -0.39041E-02   -0.56452E-04  7929   0.301E-02    0.595E-02
RMM:  20    -0.543694029727E+03   -0.84582E-03   -0.24217E-04  8901   0.217E-02    0.418E-02
RMM:  21    -0.543694660629E+03   -0.63090E-03   -0.13574E-04  8373   0.172E-02    0.380E-02
RMM:  22    -0.543694830607E+03   -0.16998E-03   -0.60092E-05  8781   0.126E-02    0.209E-02
RMM:  23    -0.543694956421E+03   -0.12581E-03   -0.38395E-05  8653   0.878E-03    0.190E-02
RMM:  24    -0.543694987081E+03   -0.30661E-04   -0.12873E-05  8049   0.671E-03    0.127E-02
RMM:  25    -0.543695047143E+03   -0.60062E-04   -0.55003E-06  6248   0.411E-03    0.920E-03
RMM:  26    -0.543695077283E+03   -0.30140E-04   -0.35787E-06  5450   0.432E-03    0.806E-03
RMM:  27    -0.543695128436E+03   -0.51153E-04   -0.30205E-06  5581   0.286E-03    0.557E-03
RMM:  28    -0.543695148075E+03   -0.19639E-04   -0.16703E-06  5040   0.214E-03    0.557E-03
RMM:  29    -0.543695168256E+03   -0.20181E-04   -0.13818E-06  4983   0.217E-03    0.380E-03
RMM:  30    -0.543695182045E+03   -0.13789E-04   -0.10216E-06  4729   0.153E-03    0.307E-03
RMM:  31    -0.543695190490E+03   -0.84444E-05   -0.67304E-07  4471   0.135E-03    0.255E-03
RMM:  32    -0.543695206171E+03   -0.15682E-04   -0.10404E-06  4890   0.122E-03    0.193E-03
RMM:  33    -0.543695214807E+03   -0.86359E-05   -0.71508E-07  4521   0.124E-03    0.173E-03
RMM:  34    -0.543695221784E+03   -0.69764E-05   -0.66365E-07  4422   0.116E-03    0.122E-03
RMM:  35    -0.543695225468E+03   -0.36845E-05   -0.43103E-07  3849   0.101E-03    0.101E-03
RMM:  36    -0.543695226618E+03   -0.11501E-05   -0.23638E-07  3426   0.857E-04    0.815E-04
RMM:  37    -0.543695227887E+03   -0.12692E-05   -0.19076E-07  3019   0.696E-04    0.102E-03
RMM:  38    -0.543695228965E+03   -0.10773E-05   -0.14109E-07  2951   0.661E-04    0.101E-03
RMM:  39    -0.543695229967E+03   -0.10022E-05   -0.12139E-07  2901   0.588E-04    0.926E-04
RMM:  40    -0.543695231289E+03   -0.13222E-05   -0.14889E-07  3064   0.584E-04    0.531E-04
RMM:  41    -0.543695231755E+03   -0.46588E-06   -0.88771E-08  2720   0.571E-04
   1 F= -.55711277E+03 E0= -.55711277E+03  d E =0.000000E+00  mag=   157.7337
