 vasp.5.4.4.18Apr17-6-g9f103f2a35 (build Dec 15 2018 21:27:11) complex          
  
 executed on             LinuxIFC date 2022.03.06  12:53:38
 running on   72 total cores
 distrk:  each k-point on   72 cores,    1 groups
 distr:  one band on NCORES_PER_BAND=  24 cores,    3 groups


--------------------------------------------------------------------------------------------------------


 INCAR:
 POTCAR:    PAW_PBE Fe 06Sep2000                  
 POTCAR:    PAW_PBE O 08Apr2002                   
 POTCAR:    PAW_PBE H 15Jun2001                   

 ----------------------------------------------------------------------------- 
|                                                                             |
|           W    W    AA    RRRRR   N    N  II  N    N   GGGG   !!!           |
|           W    W   A  A   R    R  NN   N  II  NN   N  G    G  !!!           |
|           W    W  A    A  R    R  N N  N  II  N N  N  G       !!!           |
|           W WW W  AAAAAA  RRRRR   N  N N  II  N  N N  G  GGG   !            |
|           WW  WW  A    A  R   R   N   NN  II  N   NN  G    G                |
|           W    W  A    A  R    R  N    N  II  N    N   GGGG   !!!           |
|                                                                             |
|      For optimal performance we recommend to set                            |
|        NCORE= 4 - approx SQRT( number of cores)                             |
|      NCORE specifies how many cores store one orbital (NPAR=cpu/NCORE).     |
|      This setting can  greatly improve the performance of VASP for DFT.     |
|      The default,   NCORE=1            might be grossly inefficient         |
|      on modern multi-core architectures or massively parallel machines.     |
|      Do your own testing !!!!                                               |
|      Unfortunately you need to use the default for GW and RPA calculations. |
|      (for HF NCORE is supported but not extensively tested yet)             |
|                                                                             |
 ----------------------------------------------------------------------------- 

 POTCAR:    PAW_PBE Fe 06Sep2000                  
   VRHFIN =Fe:  d7 s1                                                           
   LEXCH  = PE                                                                  
   EATOM  =   594.3153 eV,   43.6809 Ry                                         
                                                                                
   TITEL  = PAW_PBE Fe 06Sep2000                                                
   LULTRA =        F    use ultrasoft PP ?                                      
   IUNSCR =        1    unscreen: 0-lin 1-nonlin 2-no                           
   RPACOR =    2.000    partial core radius                                     
   POMASS =   55.847; ZVAL   =    8.000    mass and valenz                      
   RCORE  =    2.300    outmost cutoff radius                                   
   RWIGS  =    2.460; RWIGS  =    1.302    wigner-seitz radius (au A)           
   ENMAX  =  267.882; ENMIN  =  200.911 eV                                      
   RCLOC  =    1.701    cutoff for local pot                                    
   LCOR   =        T    correct aug charges                                     
   LPAW   =        T    paw PP                                                  
   EAUG   =  511.368                                                            
   DEXC   =    0.000                                                            
   RMAX   =    2.356    core radius for proj-oper                               
   RAUG   =    1.300    factor for augmentation sphere                          
   RDEP   =    2.442    radius for radial grids                                 
   RDEPT  =    1.890    core radius for aug-charge                              
                                                                                
   Atomic configuration                                                         
    9 entries                                                                   
     n  l   j            E        occ.                                          
     1  0  0.50     -6993.8440   2.0000                                         
     2  0  0.50      -814.6047   2.0000                                         
     2  1  1.50      -693.3689   6.0000                                         
     3  0  0.50       -89.4732   2.0000                                         
     3  1  1.50       -55.6373   6.0000                                         
     3  2  2.50        -3.8151   7.0000                                         
     4  0  0.50        -4.2551   1.0000                                         
     4  1  1.50        -3.4015   0.0000                                         
     4  3  2.50        -1.3606   0.0000                                         
   Description                                                                  
     l       E           TYP  RCUT    TYP  RCUT                                 
     2     -3.8151135     23  2.300                                             
     2     -5.1756961     23  2.300                                             
     0     -4.2550963     23  2.300                                             
     0      7.2035603     23  2.300                                             
     1     -2.7211652     23  2.300                                             
     1     18.4316424     23  2.300                                             
  local pseudopotential read in
  partial core-charges read in
  partial kinetic energy density read in
  atomic valenz-charges read in
  non local Contribution for L=           2  read in
    real space projection operators read in
  non local Contribution for L=           2  read in
    real space projection operators read in
  non local Contribution for L=           0  read in
    real space projection operators read in
  non local Contribution for L=           0  read in
    real space projection operators read in
  non local Contribution for L=           1  read in
    real space projection operators read in
  non local Contribution for L=           1  read in
    real space projection operators read in
    PAW grid and wavefunctions read in
 
   number of l-projection  operators is LMAX  =           6
   number of lm-projection operators is LMMAX =          18
 
 POTCAR:    PAW_PBE O 08Apr2002                   
   VRHFIN =O: s2p4                                                              
   LEXCH  = PE                                                                  
   EATOM  =   432.3788 eV,   31.7789 Ry                                         
                                                                                
   TITEL  = PAW_PBE O 08Apr2002                                                 
   LULTRA =        F    use ultrasoft PP ?                                      
   IUNSCR =        1    unscreen: 0-lin 1-nonlin 2-no                           
   RPACOR =    1.200    partial core radius                                     
   POMASS =   16.000; ZVAL   =    6.000    mass and valenz                      
   RCORE  =    1.520    outmost cutoff radius                                   
   RWIGS  =    1.550; RWIGS  =    0.820    wigner-seitz radius (au A)           
   ENMAX  =  400.000; ENMIN  =  300.000 eV                                      
   ICORE  =        2    local potential                                         
   LCOR   =        T    correct aug charges                                     
   LPAW   =        T    paw PP                                                  
   EAUG   =  605.392                                                            
   DEXC   =    0.000                                                            
   RMAX   =    1.553    core radius for proj-oper                               
   RAUG   =    1.300    factor for augmentation sphere                          
   RDEP   =    1.550    radius for radial grids                                 
   RDEPT  =    1.329    core radius for aug-charge                              
                                                                                
   Atomic configuration                                                         
    4 entries                                                                   
     n  l   j            E        occ.                                          
     1  0  0.50      -514.6923   2.0000                                         
     2  0  0.50       -23.9615   2.0000                                         
     2  1  0.50        -9.0305   4.0000                                         
     3  2  1.50        -9.5241   0.0000                                         
   Description                                                                  
     l       E           TYP  RCUT    TYP  RCUT                                 
     0    -23.9615318     23  1.200                                             
     0     -9.5240782     23  1.200                                             
     1     -9.0304911     23  1.520                                             
     1      8.1634956     23  1.520                                             
     2     -9.5240782      7  1.500                                             
  local pseudopotential read in
  partial core-charges read in
  partial kinetic energy density read in
  kinetic energy density of atom read in
  atomic valenz-charges read in
  non local Contribution for L=           0  read in
    real space projection operators read in
  non local Contribution for L=           0  read in
    real space projection operators read in
  non local Contribution for L=           1  read in
    real space projection operators read in
  non local Contribution for L=           1  read in
    real space projection operators read in
    PAW grid and wavefunctions read in
 
   number of l-projection  operators is LMAX  =           4
   number of lm-projection operators is LMMAX =           8
 
 POTCAR:    PAW_PBE H 15Jun2001                   
   VRHFIN =H: ultrasoft test                                                    
   LEXCH  = PE                                                                  
   EATOM  =    12.4884 eV,    0.9179 Ry                                         
                                                                                
   TITEL  = PAW_PBE H 15Jun2001                                                 
   LULTRA =        F    use ultrasoft PP ?                                      
   IUNSCR =        0    unscreen: 0-lin 1-nonlin 2-no                           
   RPACOR =    0.000    partial core radius                                     
   POMASS =    1.000; ZVAL   =    1.000    mass and valenz                      
   RCORE  =    1.100    outmost cutoff radius                                   
   RWIGS  =    0.700; RWIGS  =    0.370    wigner-seitz radius (au A)           
   ENMAX  =  250.000; ENMIN  =  200.000 eV                                      
   RCLOC  =    0.701    cutoff for local pot                                    
   LCOR   =        T    correct aug charges                                     
   LPAW   =        T    paw PP                                                  
   EAUG   =  400.000                                                            
   RMAX   =    1.123    core radius for proj-oper                               
   RAUG   =    1.200    factor for augmentation sphere                          
   RDEP   =    1.112    radius for radial grids                                 
   RDEPT  =    0.926    core radius for aug-charge                              
                                                                                
   Atomic configuration                                                         
    2 entries                                                                   
     n  l   j            E        occ.                                          
     1  0  0.50        -6.4927   1.0000                                         
     2  1  0.50        -3.4015   0.0000                                         
   Description                                                                  
     l       E           TYP  RCUT    TYP  RCUT                                 
     0     -6.4927494     23  1.100                                             
     0      6.8029130     23  1.100                                             
     1     -4.0817478     23  1.100                                             
  local pseudopotential read in
  atomic valenz-charges read in
  non local Contribution for L=           0  read in
    real space projection operators read in
  non local Contribution for L=           0  read in
    real space projection operators read in
  non local Contribution for L=           1  read in
    real space projection operators read in
    PAW grid and wavefunctions read in
 
   number of l-projection  operators is LMAX  =           3
   number of lm-projection operators is LMMAX =           5
 
 Optimization of the real space projectors (new method)

 maximal supplied QI-value         = 16.25
 optimisation between [QCUT,QGAM] = [ 11.54, 23.24] = [ 37.28,151.24] Ry 
 Optimized for a Real-space Cutoff    1.53 Angstroem

   l    n(q)    QCUT    max X(q) W(low)/X(q) W(high)/X(q)  e(spline) 
   2     10    11.539    80.901    0.11E-03    0.14E-03    0.21E-06
   2     10    11.539    75.754    0.11E-03    0.14E-03    0.22E-06
   0     11    11.539    58.752    0.52E-04    0.18E-04    0.33E-06
   0     11    11.539    30.679    0.44E-04    0.16E-04    0.30E-06
   1     10    11.539    17.977    0.53E-04    0.29E-04    0.13E-06
   1     10    11.539    13.559    0.44E-04    0.25E-04    0.11E-06
 Optimization of the real space projectors (new method)

 maximal supplied QI-value         = 24.76
 optimisation between [QCUT,QGAM] = [ 11.64, 23.27] = [ 37.91,151.63] Ry 
 Optimized for a Real-space Cutoff    1.14 Angstroem

   l    n(q)    QCUT    max X(q) W(low)/X(q) W(high)/X(q)  e(spline) 
   0      8    11.635    20.381    0.10E-03    0.33E-03    0.24E-06
   0      8    11.635    15.268    0.11E-03    0.35E-03    0.26E-06
   1      7    11.635     5.964    0.24E-03    0.31E-03    0.30E-06
   1      7    11.635     5.382    0.22E-03    0.25E-03    0.26E-06
 Optimization of the real space projectors (new method)

 maximal supplied QI-value         = 34.20
 optimisation between [QCUT,QGAM] = [ 11.63, 23.26] = [ 37.87,151.49] Ry 
 Optimized for a Real-space Cutoff    1.21 Angstroem

   l    n(q)    QCUT    max X(q) W(low)/X(q) W(high)/X(q)  e(spline) 
   0      8    11.629    19.460    0.17E-03    0.34E-03    0.21E-06
   0      8    11.629    12.209    0.16E-03    0.33E-03    0.21E-06
   1      8    11.629     4.655    0.18E-03    0.16E-03    0.26E-06
  PAW_PBE Fe 06Sep2000                  :
 energy of atom  1       EATOM= -594.3153
 kinetic energy error for atom=    0.0026 (will be added to EATOM!!)
  PAW_PBE O 08Apr2002                   :
 energy of atom  2       EATOM= -432.3788
 kinetic energy error for atom=    0.0208 (will be added to EATOM!!)
  PAW_PBE H 15Jun2001                   :
 energy of atom  3       EATOM=  -12.4884
 kinetic energy error for atom=    0.0014 (will be added to EATOM!!)
 
 
 POSCAR: POSCAR                                  
  positions in direct lattice
  velocities in cartesian coordinates
 exchange correlation table for  LEXCH =        8
   RHO(1)=    0.500       N(1)  =     2000
   RHO(2)=  100.500       N(2)  =     4000

 VTST: version 3.2, (02/03/18)

 CHAIN: initializing optimizer
 
 OPT: Using VASP Dynamics algorithm
 CHAIN: Read ICHAIN            0
 
 POSCAR: POSCAR                                  
  positions in direct lattice
  velocities in cartesian coordinates
 


--------------------------------------------------------------------------------------------------------


 ion  position               nearest neighbor table
   1  0.087  0.163  0.095-   5 2.48  13 2.48  17 2.48  49 2.48  31 2.48   3 2.48  29 2.87  53 2.87
                            15 2.87  19 2.87
   2  0.088  0.160  0.285-  32 2.38   3 2.44  31 2.45  50 2.47   4 2.47  14 2.48   6 2.48  18 2.50
                            20 2.82  15 2.83  54 2.84  19 2.84  16 2.87  30 2.89
   3  0.212  0.038  0.191-   2 2.44  54 2.44  15 2.48   7 2.48  51 2.48  19 2.48  53 2.48   1 2.48
                             6 2.83  50 2.85  31 2.87  55 2.87  49 2.87   5 2.87
   4  0.206  0.031  0.381-  65 1.89  16 2.42  52 2.42  54 2.47   2 2.47   8 2.54  20 2.54  50 2.77
                            56 2.86  32 2.87   6 2.95
   5  0.337  0.163  0.095-   1 2.48   9 2.48  21 2.48  53 2.48   7 2.48  19 2.48  17 2.87  57 2.87
                             3 2.87  23 2.87
   6  0.338  0.163  0.285-   7 2.44  19 2.44  20 2.46   8 2.46  10 2.48  22 2.48   2 2.48  54 2.48
                            24 2.80  23 2.83   3 2.83  58 2.86  18 2.86   4 2.95
   7  0.462  0.038  0.191-   6 2.44  58 2.44  11 2.48   3 2.48  55 2.48  23 2.48  57 2.48   5 2.48
                            10 2.84  54 2.84  19 2.87  59 2.87  53 2.87   9 2.87
   8  0.460  0.036  0.380-  65 1.87  12 2.43  56 2.44  58 2.45   6 2.46  24 2.49   4 2.54  54 2.82
                            60 2.84  20 2.86  10 2.86
   9  0.587  0.163  0.095-   5 2.48  13 2.48  25 2.48  57 2.48  11 2.48  23 2.48  21 2.87  61 2.87
                             7 2.87  27 2.87
  10  0.588  0.162  0.286-  24 2.42  12 2.44  11 2.45  23 2.46  58 2.47   6 2.48  14 2.49  26 2.49
                             7 2.84  27 2.84  28 2.85  62 2.86   8 2.86  22 2.87
  11  0.712  0.038  0.191-  62 2.44  10 2.45  15 2.48   7 2.48  59 2.48  27 2.48  61 2.48   9 2.48
                            14 2.84  58 2.84  23 2.87  63 2.87  57 2.87  13 2.87
  12  0.707  0.029  0.379-  66 1.86  60 2.39  62 2.43   8 2.43  10 2.44  16 2.54  28 2.56  58 2.74
                            64 2.85  24 2.89  14 2.92
  13  0.837  0.163  0.095-   1 2.48   9 2.48  29 2.48  61 2.48  15 2.48  27 2.48  49 2.87  25 2.87
                            11 2.87  31 2.87
  14  0.838  0.163  0.285-  15 2.44  27 2.44  28 2.45  16 2.47   2 2.48  30 2.48  10 2.49  62 2.49
                            32 2.78  31 2.83  11 2.84  50 2.87  26 2.87  12 2.92
  15  0.962  0.038  0.191-  14 2.44  50 2.46   3 2.48  11 2.48  31 2.48  63 2.48  13 2.48  49 2.48
                             2 2.83  62 2.84  27 2.87  51 2.87   1 2.87  61 2.87
  16  0.961  0.033  0.380-  66 1.86   4 2.42  50 2.43  64 2.44  14 2.47  12 2.54  32 2.54  62 2.82
                            52 2.82  28 2.83   2 2.87
  17  0.087  0.413  0.095-  21 2.48  29 2.48   1 2.48  33 2.48  19 2.48  47 2.48  45 2.87   5 2.87
                            31 2.87  35 2.87
  18  0.088  0.412  0.285-  48 2.42  19 2.44  20 2.45  47 2.46  22 2.47  34 2.48  30 2.49   2 2.50
                            36 2.74  32 2.76  35 2.84  31 2.84   6 2.86  46 2.88
  19  0.212  0.288  0.191-   6 2.44  18 2.44  23 2.48  31 2.48   3 2.48  35 2.48   5 2.48  17 2.48
                            22 2.84   2 2.84   7 2.87  47 2.87  21 2.87   1 2.87
  20  0.211  0.285  0.380-  65 1.87  36 2.43  32 2.44  18 2.45   6 2.46  24 2.48   4 2.54   2 2.82
                            48 2.85   8 2.86  22 2.86
  21  0.337  0.413  0.095-  17 2.48  25 2.48   5 2.48  37 2.48  35 2.48  23 2.48   9 2.87  33 2.87
                            19 2.87  39 2.87
  22  0.337  0.413  0.286-  24 2.42  36 2.44  35 2.45  23 2.46  18 2.47   6 2.48  38 2.49  26 2.49
                            19 2.84  39 2.84  40 2.85  34 2.86  20 2.86  10 2.87
  23  0.462  0.288  0.191-  22 2.46  10 2.46  19 2.48  27 2.48   7 2.48  39 2.48  21 2.48   9 2.48
                             6 2.83  26 2.87  35 2.87  11 2.87   5 2.87  25 2.87
  24  0.460  0.286  0.378-  69 2.03  10 2.42  22 2.42  20 2.48   8 2.49  40 2.54  28 2.54   6 2.80
                            26 2.83  12 2.89  36 2.89
  25  0.587  0.413  0.095-  21 2.48  29 2.48   9 2.48  41 2.48  39 2.48  27 2.48  13 2.87  37 2.87
                            23 2.87  43 2.87
  26  0.588  0.413  0.287-  42 2.47  30 2.47  27 2.47  39 2.47  40 2.48  28 2.48  22 2.49  10 2.49
                            44 2.78  24 2.83  43 2.85  23 2.87  14 2.87  38 2.87
  27  0.712  0.288  0.191-  14 2.44  26 2.47  23 2.48  31 2.48  11 2.48  43 2.48  25 2.48  13 2.48
                            30 2.83  10 2.84  39 2.87  15 2.87   9 2.87  29 2.87
  28  0.717  0.283  0.381-  66 1.90  69 2.05  14 2.45  32 2.47  26 2.48  44 2.49  24 2.54  12 2.56
                            16 2.83  10 2.85  30 2.86  40 2.97
  29  0.837  0.413  0.095-  17 2.48  25 2.48  13 2.48  45 2.48  43 2.48  31 2.48   1 2.87  41 2.87
                            27 2.87  47 2.87
  30  0.837  0.413  0.285-  32 2.39  43 2.44  31 2.45  44 2.45  26 2.47  46 2.48  14 2.48  18 2.49
                            48 2.81  27 2.83  47 2.83  42 2.85  28 2.86   2 2.89
  31  0.962  0.288  0.191-  30 2.45   2 2.45  27 2.48  19 2.48  15 2.48  47 2.48   1 2.48  29 2.48
                            14 2.83  18 2.84  43 2.87   3 2.87  17 2.87  13 2.87
  32  0.964  0.288  0.375-   2 2.38  30 2.39  48 2.44  20 2.44  28 2.47  16 2.54  18 2.76  14 2.78
                             4 2.87  44 2.88
  33  0.087  0.663  0.095-  37 2.48  45 2.48  17 2.48  49 2.48  35 2.48  63 2.48  61 2.87  21 2.87
                            47 2.87  51 2.87
  34  0.088  0.662  0.285-  64 2.40  36 2.43  35 2.44  63 2.45  18 2.48  46 2.48  38 2.49  50 2.49
                            52 2.82  47 2.83  51 2.84  48 2.85  22 2.86  62 2.88
  35  0.212  0.538  0.191-  34 2.44  22 2.45  39 2.48  47 2.48  19 2.48  51 2.48  21 2.48  33 2.48
                            38 2.84  18 2.84  23 2.87  63 2.87  37 2.87  17 2.87
  36  0.204  0.532  0.379-  68 1.86  48 2.39  34 2.43  20 2.43  22 2.44  52 2.54  40 2.56  18 2.74
                            64 2.85  24 2.89  38 2.92
  37  0.337  0.663  0.095-  33 2.48  41 2.48  21 2.48  53 2.48  51 2.48  39 2.48  25 2.87  49 2.87
                            35 2.87  55 2.87
  38  0.338  0.663  0.285-  51 2.44  39 2.44  40 2.45  52 2.47  54 2.48  42 2.48  22 2.49  34 2.49
                            56 2.78  55 2.83  35 2.84  50 2.87  26 2.87  36 2.92
  39  0.462  0.538  0.191-  38 2.44  26 2.47  35 2.48  43 2.48  23 2.48  55 2.48  37 2.48  25 2.48
                            42 2.83  22 2.84  51 2.87  27 2.87  21 2.87  41 2.87
  40  0.458  0.542  0.381-  68 1.90  69 2.05  38 2.45  56 2.47  26 2.48  44 2.49  24 2.54  36 2.56
                            52 2.83  22 2.85  42 2.86  28 2.97
  41  0.587  0.663  0.095-  37 2.48  45 2.48  25 2.48  57 2.48  55 2.48  43 2.48  29 2.87  53 2.87
                            39 2.87  59 2.87
  42  0.588  0.662  0.285-  56 2.39  43 2.44  55 2.45  44 2.45  26 2.47  46 2.48  38 2.48  58 2.49
                            60 2.81  39 2.83  59 2.83  30 2.85  40 2.86  54 2.89
  43  0.712  0.538  0.191-  42 2.44  30 2.44  39 2.48  47 2.48  27 2.48  59 2.48  41 2.48  29 2.48
                            46 2.82  26 2.85  55 2.87  31 2.87  25 2.87  45 2.87
  44  0.710  0.536  0.379-  67 1.94  42 2.45  30 2.45  40 2.49  28 2.49  60 2.50  48 2.50  26 2.78
                            46 2.87  56 2.87  32 2.88
  45  0.837  0.663  0.095-  33 2.48  41 2.48  29 2.48  61 2.48  59 2.48  47 2.48  17 2.87  57 2.87
                            43 2.87  63 2.87
  46  0.837  0.663  0.284-  47 2.43  59 2.43  48 2.47  60 2.47  30 2.48  42 2.48  34 2.48  62 2.48
                            64 2.80  43 2.82  63 2.82  44 2.87  58 2.88  18 2.88
  47  0.962  0.538  0.191-  46 2.43  18 2.46  43 2.48  35 2.48  31 2.48  63 2.48  17 2.48  45 2.48
                            34 2.83  30 2.83  59 2.87  19 2.87  33 2.87  29 2.87
  48  0.963  0.533  0.379-  67 1.86  36 2.39  18 2.42  32 2.44  46 2.47  44 2.50  64 2.52  30 2.81
                            20 2.85  34 2.85  60 2.92
  49  0.087  0.913  0.095-  53 2.48  61 2.48   1 2.48  33 2.48  15 2.48  51 2.48  37 2.87  13 2.87
                             3 2.87  63 2.87
  50  0.087  0.912  0.286-  16 2.43  52 2.43  51 2.46  15 2.46  54 2.47   2 2.47  34 2.49  62 2.49
                             4 2.77  64 2.79  63 2.84   3 2.85  38 2.87  14 2.87
  51  0.212  0.788  0.191-  38 2.44  50 2.46  55 2.48  63 2.48   3 2.48  35 2.48  49 2.48  37 2.48
                            54 2.82  34 2.84  39 2.87  15 2.87  53 2.87  33 2.87
  52  0.208  0.786  0.380-  68 1.86   4 2.42  50 2.43  64 2.44  38 2.47  36 2.54  56 2.54  34 2.82
                            16 2.82  40 2.83  54 2.87
  53  0.337  0.913  0.095-  49 2.48  57 2.48   5 2.48  37 2.48  55 2.48   3 2.48  41 2.87   1 2.87
                             7 2.87  51 2.87
  54  0.335  0.913  0.285-  56 2.38   3 2.44  55 2.45  50 2.47   4 2.47  38 2.48   6 2.48  58 2.50
                             8 2.82  51 2.82   2 2.84   7 2.84  52 2.87  42 2.89
  55  0.462  0.788  0.191-  42 2.45  54 2.45  51 2.48  59 2.48   7 2.48  39 2.48  41 2.48  53 2.48
                            38 2.83  58 2.84  43 2.87   3 2.87  37 2.87  57 2.87
  56  0.462  0.789  0.375-  54 2.38  42 2.39  60 2.44   8 2.44  40 2.47  52 2.54  58 2.76  38 2.78
                             4 2.86  44 2.87
  57  0.587  0.913  0.095-  53 2.48  61 2.48   9 2.48  41 2.48  59 2.48   7 2.48  45 2.87   5 2.87
                            11 2.87  55 2.87
  58  0.586  0.914  0.285-  60 2.42   7 2.44   8 2.45  59 2.46  10 2.47  62 2.48  42 2.49  54 2.50
                            12 2.74  56 2.76  11 2.84  55 2.84   6 2.86  46 2.88
  59  0.712  0.788  0.191-  46 2.43  58 2.46  55 2.48  63 2.48  11 2.48  43 2.48  45 2.48  57 2.48
                            62 2.83  42 2.83  47 2.87   7 2.87  41 2.87  61 2.87
  60  0.708  0.788  0.379-  67 1.86  12 2.39  58 2.42  56 2.44  46 2.47  44 2.50  64 2.52  42 2.81
                             8 2.84  62 2.85  48 2.92
  61  0.837  0.913  0.095-  49 2.48  57 2.48  13 2.48  45 2.48  11 2.48  63 2.48   9 2.87  33 2.87
                            59 2.87  15 2.87
  62  0.836  0.913  0.285-  64 2.40  12 2.43  11 2.44  63 2.45  58 2.48  46 2.48  14 2.49  50 2.49
                            16 2.82  59 2.83  15 2.84  60 2.85  10 2.86  34 2.88
  63  0.962  0.788  0.191-  34 2.45  62 2.45  59 2.48  51 2.48  47 2.48  15 2.48  61 2.48  33 2.48
                            46 2.82  50 2.84  35 2.87  11 2.87  49 2.87  45 2.87
  64  0.962  0.787  0.376-  62 2.40  34 2.40  16 2.44  52 2.44  48 2.52  60 2.52  50 2.79  46 2.80
                            12 2.85  36 2.85
  65  0.302  0.127  0.431-   8 1.87  20 1.87   4 1.89
  66  0.804  0.118  0.431-  16 1.86  12 1.86  28 1.90
  67  0.810  0.635  0.430-  48 1.86  60 1.86  44 1.94
  68  0.292  0.628  0.431-  52 1.86  36 1.86  40 1.90
  69  0.554  0.379  0.442-  70 0.97  24 2.03  28 2.05  40 2.05
  70  0.550  0.375  0.488-  69 0.97
 

IMPORTANT INFORMATION: All symmetrisations will be switched off!
NOSYMM: (Re-)initialisation of all symmetry stuff for point group C_1.

 
 

Automatic generation of k-mesh.
 generate k-points for:    3    3    1
Space group operators:
 irot       det(A)        alpha          n_x          n_y          n_z        tau_x        tau_y        tau_z
    1     1.000000     0.000001     1.000000     0.000000     0.000000     0.000000     0.000000     0.000000
 
 Subroutine IBZKPT returns following result:
 ===========================================
 
 Found      5 irreducible k-points:
 
 Following reciprocal coordinates:
            Coordinates               Weight
  0.000000  0.000000  0.000000      1.000000
  0.333333  0.000000  0.000000      2.000000
  0.000000  0.333333  0.000000      2.000000
  0.333333  0.333333  0.000000      2.000000
 -0.333333  0.333333  0.000000      2.000000
 
 Following cartesian coordinates:
            Coordinates               Weight
  0.000000  0.000000  0.000000      1.000000
  0.033570 -0.011869  0.000000      2.000000
  0.000000  0.035606  0.000000      2.000000
  0.033570  0.023738  0.000000      2.000000
 -0.033570  0.047475  0.000000      2.000000
 
 TETIRR: Found     24 inequivalent tetrahedra from       54


--------------------------------------------------------------------------------------------------------




 Dimension of arrays:
   k-points           NKPTS =      5   k-points in BZ     NKDIM =      5   number of bands    NBANDS=    360
   number of dos      NEDOS =    301   number of ions     NIONS =     70
   non local maximal  LDIM  =      6   non local SUM 2l+1 LMDIM =     18
   total plane-waves  NPLWV = ******
   max r-space proj   IRMAX =   7948   max aug-charges    IRDMAX=  18812
   dimension x,y,z NGX =    80 NGY =   80 NGZ =  160
   dimension x,y,z NGXF=   160 NGYF=  160 NGZF=  320
   support grid    NGXF=   160 NGYF=  160 NGZF=  320
   ions per type =              64   5   1
   NGX,Y,Z   is equivalent  to a cutoff of  13.39, 13.39, 12.62 a.u.
   NGXF,Y,Z  is equivalent  to a cutoff of  26.79, 26.79, 25.24 a.u.

 SYSTEM =  SQS-NiFe                                
 POSCAR =  POSCAR                                  

 Startparameter for this run:
   NWRITE =      2    write-flag & timer
   PREC   = accura    normal or accurate (medium, high low for compatibility)
   ISTART =      1    job   : 0-new  1-cont  2-samecut
   ICHARG =      1    charge: 1-file 2-atom 10-const
   ISPIN  =      2    spin polarized calculation?
   LNONCOLLINEAR =      F non collinear calculations
   LSORBIT =      F    spin-orbit coupling
   INIWAV =      1    electr: 0-lowe 1-rand  2-diag
   LASPH  =      F    aspherical Exc in radial PAW
   METAGGA=      F    non-selfconsistent MetaGGA calc.

 Electronic Relaxation 1
   ENCUT  =  520.0 eV  38.22 Ry    6.18 a.u.  18.46 18.46 39.20*2*pi/ulx,y,z
   ENINI  =  520.0     initial cutoff
   ENAUG  =  605.4 eV  augmentation charge cutoff
   NELM   =    200;   NELMIN=  2; NELMDL=  0     # of ELM steps 
   EDIFF  = 0.1E-05   stopping-criterion for ELM
   LREAL  =      T    real-space projection
   NLSPLINE    = F    spline interpolate recip. space projectors
   LCOMPAT=      F    compatible to vasp.4.4
   GGA_COMPAT  = T    GGA compatible to vasp.4.4-vasp.4.6
   LMAXPAW     = -100 max onsite density
   LMAXMIX     =    2 max onsite mixed and CHGCAR
   VOSKOWN=      0    Vosko Wilk Nusair interpolation
   ROPT   =   -0.00025  -0.00025  -0.00025
 Ionic relaxation
   EDIFFG = -.2E-01   stopping-criterion for IOM
   NSW    =      0    number of steps for IOM
   NBLOCK =      1;   KBLOCK =      1    inner block; outer block 
   IBRION =     -1    ionic relax: 0-MD 1-quasi-New 2-CG
   NFREE  =      0    steps in history (QN), initial steepest desc. (CG)
   ISIF   =      2    stress and relaxation
   IWAVPR =     10    prediction:  0-non 1-charg 2-wave 3-comb
   ISYM   =      0    0-nonsym 1-usesym 2-fastsym
   LCORR  =      T    Harris-Foulkes like correction to forces

   POTIM  = 0.5000    time-step for ionic-motion
   TEIN   =    0.0    initial temperature
   TEBEG  =    0.0;   TEEND  =   0.0 temperature during run
   SMASS  =  -3.00    Nose mass-parameter (am)
   estimated Nose-frequenzy (Omega)   =  0.10E-29 period in steps =****** mass=  -0.225E-26a.u.
   SCALEE = 1.0000    scale energy and forces
   NPACO  =    256;   APACO  = 16.0  distance and # of slots for P.C.
   PSTRESS=    0.0 pullay stress

  Mass of Ions in am
   POMASS =  55.85 16.00  1.00
  Ionic Valenz
   ZVAL   =   8.00  6.00  1.00
  Atomic Wigner-Seitz radii
   RWIGS  =  -1.00 -1.00 -1.00
  virtual crystal weights 
   VCA    =   1.00  1.00  1.00
   NELECT =     543.0000    total number of electrons
   NUPDOWN=      -1.0000    fix difference up-down

 DOS related values:
   EMIN   =  10.00;   EMAX   =-10.00  energy-range for DOS
   EFERMI =   0.00
   ISMEAR =    -5;   SIGMA  =   0.20  broadening in eV -4-tet -1-fermi 0-gaus

 Electronic relaxation 2 (details)
   IALGO  =     68    algorithm
   LDIAG  =      T    sub-space diagonalisation (order eigenvalues)
   LSUBROT=      F    optimize rotation matrix (better conditioning)
   TURBO    =      0    0=normal 1=particle mesh
   IRESTART =      0    0=no restart 2=restart with 2 vectors
   NREBOOT  =      0    no. of reboots
   NMIN     =      0    reboot dimension
   EREF     =   0.00    reference energy to select bands
   IMIX   =      4    mixing-type and parameters
     AMIX     =   0.40;   BMIX     =  1.00
     AMIX_MAG =   1.60;   BMIX_MAG =  1.00
     AMIN     =   0.10
     WC   =   100.;   INIMIX=   1;  MIXPRE=   1;  MAXMIX= -45

 Intra band minimization:
   WEIMIN = 0.0000     energy-eigenvalue tresh-hold
   EBREAK =  0.69E-09  absolut break condition
   DEPER  =   0.30     relativ break condition  

   TIME   =   0.40     timestep for ELM

  volume/ion in A,a.u.               =      27.99       188.91
  Fermi-wavevector in a.u.,A,eV,Ry     =   1.067304  2.016911 15.498899  1.139137
  Thomas-Fermi vector in A             =   2.202916
 
 Write flags
   LWAVE        =      T    write WAVECAR
   LDOWNSAMPLE  =      F    k-point downsampling of WAVECAR
   LCHARG       =      T    write CHGCAR
   LVTOT        =      F    write LOCPOT, total local potential
   LVHAR        =      F    write LOCPOT, Hartree potential only
   LELF         =      F    write electronic localiz. function (ELF)
   LORBIT       =     11    0 simple, 1 ext, 2 COOP (PROOUT), +10 PAW based schemes


 Dipole corrections
   LMONO  =      F    monopole corrections only (constant potential shift)
   LDIPOL =      T    correct potential (dipole corrections)
   IDIPOL =      3    1-x, 2-y, 3-z, 4-all directions 
   EPSILON=  1.0000000 bulk dielectric constant

 Exchange correlation treatment:
   GGA     =    --    GGA type
   LEXCH   =     8    internal setting for exchange type
   VOSKOWN=      0    Vosko Wilk Nusair interpolation
   LHFCALC =     F    Hartree Fock is set to
   LHFONE  =     F    Hartree Fock one center treatment
   AEXX    =    0.0000 exact exchange contribution

 Linear response parameters
   LEPSILON=     F    determine dielectric tensor
   LRPA    =     F    only Hartree local field effects (RPA)
   LNABLA  =     F    use nabla operator in PAW spheres
   LVEL    =     F    velocity operator in full k-point grid
   LINTERFAST=   F  fast interpolation
   KINTER  =     0    interpolate to denser k-point grid
   CSHIFT  =0.1000    complex shift for real part using Kramers Kronig
   OMEGAMAX=  -1.0    maximum frequency
   DEG_THRESHOLD= 0.2000000E-02 threshold for treating states as degnerate
   RTIME   =   -0.100 relaxation time in fs
  (WPLASMAI=    0.000 imaginary part of plasma frequency in eV, 0.658/RTIME)
   DFIELD  = 0.0000000 0.0000000 0.0000000 field for delta impulse in time
 
 Orbital magnetization related:
   ORBITALMAG=     F  switch on orbital magnetization
   LCHIMAG   =     F  perturbation theory with respect to B field
   DQ        =  0.001000  dq finite difference perturbation B field
   LLRAUG    =     F  two centre corrections for induced B field



--------------------------------------------------------------------------------------------------------


 Static calculation
 charge density and potential will be updated during run
 spin polarized calculation
 RMM-DIIS sequential band-by-band and
  variant of blocked Davidson during initial phase
 perform sub-space diagonalisation
    before iterative eigenvector-optimisation
 modified Broyden-mixing scheme, WC =      100.0
 initial mixing is a Kerker type mixing with AMIX =  0.4000 and BMIX =      1.0000
 Hartree-type preconditioning will be used
 using additional bands           88
 real space projection scheme for non local part
 use partial core corrections
 calculate Harris-corrections to forces 
   (improved forces if not selfconsistent)
 use gradient corrections 
 use of overlap-Matrix (Vanderbilt PP)
 Fermi weights with tetrahedron method with Bloechl corrections


--------------------------------------------------------------------------------------------------------


  energy-cutoff  :      520.00
  volume of cell :     1959.57
      direct lattice vectors                 reciprocal lattice vectors
     9.929500000  0.000000000  0.000000000     0.100710006 -0.035606363  0.000000000
     3.309833230  9.361622420  0.000000000     0.000000000  0.106819091  0.000000000
     0.000000000  0.000000000 21.080550000     0.000000000  0.000000000  0.047437092

  length of vectors
     9.929500000  9.929500005 21.080550000     0.106819091  0.106819091  0.047437092


 
 old parameters found on file WAVECAR:
  energy-cutoff  :      520.00
  volume of cell :     1959.57
      direct lattice vectors                 reciprocal lattice vectors
     9.929500000  0.000000000  0.000000000     0.100710006 -0.035606363  0.000000000
     3.309833230  9.361622420  0.000000000     0.000000000  0.106819091  0.000000000
     0.000000000  0.000000000 21.080550000     0.000000000  0.000000000  0.047437092

  length of vectors

 
 k-points in units of 2pi/SCALE and weight: read from INCAR                         
   0.00000000  0.00000000  0.00000000       0.111
   0.03357000 -0.01186879  0.00000000       0.222
   0.00000000  0.03560636  0.00000000       0.222
   0.03357000  0.02373758  0.00000000       0.222
  -0.03357000  0.04747515  0.00000000       0.222
 
 k-points in reciprocal lattice and weights: read from INCAR                         
   0.00000000  0.00000000  0.00000000       0.111
   0.33333333  0.00000000  0.00000000       0.222
   0.00000000  0.33333333  0.00000000       0.222
   0.33333333  0.33333333  0.00000000       0.222
  -0.33333333  0.33333333  0.00000000       0.222
 
 position of ions in fractional coordinates (direct lattice) 
   0.08738900  0.16261100  0.09487400
   0.08805884  0.16049282  0.28495458
   0.21238900  0.03761100  0.19102200
   0.20550250  0.03060065  0.38064930
   0.33738900  0.16261100  0.09487400
   0.33754578  0.16268706  0.28467204
   0.46238900  0.03761100  0.19102200
   0.45954980  0.03561460  0.37950043
   0.58738900  0.16261100  0.09487400
   0.58751132  0.16226095  0.28553925
   0.71238900  0.03761100  0.19102200
   0.70681724  0.02885685  0.37876288
   0.83738900  0.16261100  0.09487400
   0.83769503  0.16274011  0.28491391
   0.96238900  0.03761100  0.19102200
   0.96134394  0.03270494  0.37967715
   0.08738900  0.41261100  0.09487400
   0.08846056  0.41168515  0.28530289
   0.21238900  0.28761100  0.19102200
   0.21057924  0.28466899  0.37951384
   0.33738900  0.41261100  0.09487400
   0.33711586  0.41268584  0.28551574
   0.46238900  0.28761100  0.19102200
   0.46049547  0.28564506  0.37812983
   0.58738900  0.41261100  0.09487400
   0.58798973  0.41317008  0.28670458
   0.71238900  0.28761100  0.19102200
   0.71708436  0.28288061  0.38065218
   0.83738900  0.41261100  0.09487400
   0.83676164  0.41300368  0.28483031
   0.96238900  0.28761100  0.19102200
   0.96367142  0.28764929  0.37480337
   0.08738900  0.66261100  0.09487400
   0.08750377  0.66157853  0.28483756
   0.21238900  0.53761100  0.19102200
   0.20368742  0.53198899  0.37873425
   0.33738900  0.66261100  0.09487400
   0.33753499  0.66285990  0.28489954
   0.46238900  0.53761100  0.19102200
   0.45763497  0.54218200  0.38064876
   0.58738900  0.66261100  0.09487400
   0.58776916  0.66193334  0.28483757
   0.71238900  0.53761100  0.19102200
   0.71019760  0.53551084  0.37922161
   0.83738900  0.66261100  0.09487400
   0.83734244  0.66253132  0.28418788
   0.96238900  0.53761100  0.19102200
   0.96275266  0.53316955  0.37858987
   0.08738900  0.91261100  0.09487400
   0.08718012  0.91235703  0.28566941
   0.21238900  0.78761100  0.19102200
   0.20756590  0.78640325  0.37968916
   0.33738900  0.91261100  0.09487400
   0.33531053  0.91319953  0.28494538
   0.46238900  0.78761100  0.19102200
   0.46233907  0.78877575  0.37482257
   0.58738900  0.91261100  0.09487400
   0.58648881  0.91357395  0.28530451
   0.71238900  0.78761100  0.19102200
   0.70789775  0.78797453  0.37857899
   0.83738900  0.91261100  0.09487400
   0.83637920  0.91270470  0.28484979
   0.96238900  0.78761100  0.19102200
   0.96177516  0.78700676  0.37600978
   0.30155315  0.12662157  0.43106699
   0.80350096  0.11771554  0.43096382
   0.81018516  0.63542923  0.42999392
   0.29238031  0.62848274  0.43093983
   0.55405192  0.37916208  0.44218286
   0.55026937  0.37515852  0.48832369
 
 position of ions in cartesian coordinates  (Angst):
   1.40594437  1.52230278  1.99999610
   1.40558477  1.50247320  6.00699931
   2.23340271  0.35209998  4.02684882
   2.14182009  0.28647177  8.02429656
   3.88831937  1.52230278  1.99999610
   3.89012781  1.52301481  6.00104322
   4.71577771  0.35209998  4.02684882
   4.68097810  0.33341043  8.00007775
   6.37069437  1.52230278  1.99999610
   6.37075030  1.51902574  6.01932449
   7.19815271  0.35209998  4.02684882
   7.11385313  0.27014691  7.98452977
   8.85306937  1.52230278  1.99999610
   8.85653541  1.52351142  6.00614198
   9.68052771  0.35209998  4.02684882
   9.65391258  0.30617133  8.00380315
   2.23340267  3.86270839  1.99999610
   2.24097836  3.85404098  6.01434189
   3.06086102  2.69250559  4.02684882
   3.03315344  2.66496362  8.00036038
   4.71577767  3.86270839  1.99999610
   4.71331326  3.86340901  6.01882888
   5.54323602  2.69250559  4.02684882
   5.51792724  2.67410120  7.97118471
   7.19815267  3.86270839  1.99999610
   7.20596807  3.86794231  6.04389027
   8.02561102  2.69250559  4.02684882
   8.05657682  2.64822144  8.02435730
   9.68052767  3.86270839  1.99999610
   9.67559806  3.86638454  6.00437966
  10.50798602  2.69250559  4.02684882
  10.52084651  2.69286401  7.90106115
   3.06086098  6.20311399  1.99999610
   3.05858323  6.19344836  6.00453235
   3.88831933  5.03291119  4.02684882
   3.78330905  4.98028004  7.98392635
   5.54323598  6.20311399  1.99999610
   5.54550938  6.20544414  6.00583909
   6.37069433  5.03291119  4.02684882
   6.33861843  5.07570318  8.02428528
   8.02561098  6.20311399  1.99999610
   8.02714279  6.19676998  6.00453261
   8.85306933  5.03291119  4.02684882
   8.82435866  5.01325029  7.99420006
  10.50798598  6.20311399  1.99999610
  10.50725988  6.20236802  5.99083680
  11.33544433  5.03291119  4.02684882
  11.32435484  4.99133205  7.98088260
   3.88831929  8.54351960  1.99999610
   3.88540462  8.54114200  6.02206819
   4.71577764  7.37331680  4.02684882
   4.66388923  7.36201033  8.00405627
   6.37069429  8.54351960  1.99999610
   6.35200405  8.54902919  6.00680534
   7.19815264  7.37331680  4.02684882
   7.20151195  7.38422074  7.90146585
   8.85306929  8.54351960  1.99999610
   8.84731802  8.55253436  6.01437599
   9.68052764  7.37331680  4.02684882
   9.63713496  7.37672002  7.98065337
  11.33544429  8.54351960  1.99999610
  11.32572755  8.54439675  6.00479023
  12.16290264  7.37331680  4.02684882
  12.15480756  7.36766014  7.92649300
   3.41336830  1.18538331  9.08712921
   8.36798164  1.10200844  9.08495442
  10.14789832  5.94864851  9.06450824
   4.98336336  5.88361807  9.08444860
   6.75642177  3.54957226  9.32145780
   6.70561188  3.51209238 10.29413195
 


--------------------------------------------------------------------------------------------------------


 k-point  1 :   0.0000 0.0000 0.0000  plane waves:   52797
 k-point  2 :   0.3333 0.0000 0.0000  plane waves:   52741
 k-point  3 :   0.0000 0.3333 0.0000  plane waves:   52741
 k-point  4 :   0.3333 0.3333 0.0000  plane waves:   52754
 k-point  5 :  -0.3333 0.3333 0.0000  plane waves:   52703

 maximum and minimum number of plane-waves per node :      2214     2178

 maximum number of plane-waves:     52797
 maximum index in each direction: 
   IXMAX=   18   IYMAX=   18   IZMAX=   39
   IXMIN=  -18   IYMIN=  -18   IZMIN=  -39


 real space projection operators:
  total allocation   :      69831.79 KBytes
  max/ min on nodes  :       3506.25       2557.85


 parallel 3D FFT for wavefunctions:
    minimum data exchange during FFTs selected (reduces bandwidth)
 parallel 3D FFT for charge:
    minimum data exchange during FFTs selected (reduces bandwidth)


 total amount of memory used by VASP MPI-rank0   111404. kBytes
=======================================================================

   base      :      30000. kBytes
   nonlr-proj:      13673. kBytes
   fftplans  :       6401. kBytes
   grid      :      17692. kBytes
   one-center:         93. kBytes
   wavefun   :      43545. kBytes
 
     INWAV:  cpu time   10.7735: real time   11.0702
 Broyden mixing: mesh for mixing (old mesh)
   NGX = 37   NGY = 37   NGZ = 79
  (NGX  =160   NGY  =160   NGZ  =320)
  gives a total of 108151 points

 initial charge density was supplied:
 number of electron     543.0000219 magnetization     158.2034128
 keeping initial charge density in first step


--------------------------------------------------------------------------------------------------------


 Maximum index for non-local projection operator          801
 Maximum index for augmentation-charges         1216 (set IRDMAX)


--------------------------------------------------------------------------------------------------------


 First call to EWALD:  gamma=   0.142
 Maximum number of real-space cells 4x 4x 2
 Maximum number of reciprocal cells 2x 2x 4

    FEWALD:  cpu time    0.0034: real time    0.0034


--------------------------------------- Iteration      1(   1)  ---------------------------------------


    POTLOK:  cpu time    0.4090: real time    0.4167
    SETDIJ:  cpu time    0.0244: real time    0.0244
     EDDAV:  cpu time   41.5288: real time   41.8009
 BZINTS: Fermi energy: -0.507478;543.000000 electrons
         Band energy:***********;  BLOECHL correction: -0.026368
       DOS:  cpu time    0.0427: real time    0.0427
    CHARGE:  cpu time    0.9365: real time    0.9412
    MIXING:  cpu time    0.0065: real time    0.0063
    --------------------------------------------
      LOOP:  cpu time   42.9479: real time   43.2324

 eigenvalue-minimisations  : 10134
 total energy-change (2. order) :-0.5432243E+03  (-0.3966673E-01)
 number of electron     543.0000219 magnetization     158.3156694
 augmentation part      270.2922198 magnetization     126.0534293

 DIPCOR: dipole corrections for dipol
 direction  3 min pos   242,
 dipolmoment           0.000000      0.000000      0.002047 electrons x Angstroem
 Tr[quadrupol]     -8929.766597

 energy correction for charged system         0.000000 eV
 dipol+quadrupol energy correction           -0.000000 eV
 added-field ion interaction          0.009616 eV  (added to PSCEN)


 Broyden mixing:
  rms(total) = 0.13734E+00    rms(broyden)= 0.13724E+00
  rms(prec ) = 0.14420E+00
  weight for this iteration     100.00

 Free energy of the ion-electron system (eV)
  ---------------------------------------------------
  alpha Z        PSCENC =      1564.89608774
  Ewald energy   TEWEN  =    149058.23502799
  -Hartree energ DENC   =   -189515.23804256
  -exchange      EXHF   =         0.00000000
  -V(xc)+E(xc)   XCENC  =       421.76656845
  PAW double counting   =     47554.58829669   -48144.16778139
  entropy T*S    EENTRO =         0.00000000
  eigenvalues    EBANDS =     -1693.59290349
  atomic energy  EATOM  =     40210.28846851
  Solvation  Ediel_sol  =         0.00000000
  ---------------------------------------------------
  free energy    TOTEN  =      -543.22427805 eV

  energy without entropy =     -543.22427805  energy(sigma->0) =     -543.22427805


--------------------------------------------------------------------------------------------------------




--------------------------------------- Iteration      1(   2)  ---------------------------------------


    POTLOK:  cpu time    0.4119: real time    0.4252
    SETDIJ:  cpu time    0.0245: real time    0.0245
    EDDIAG:  cpu time    4.8303: real time    4.8326
  RMM-DIIS:  cpu time   17.7962: real time   17.8069
    ORTHCH:  cpu time    1.2892: real time    1.2895
 BZINTS: Fermi energy: -0.469719;543.000000 electrons
         Band energy:***********;  BLOECHL correction: -0.018475
       DOS:  cpu time    0.0437: real time    0.0437
    CHARGE:  cpu time    0.9302: real time    0.9305
    MIXING:  cpu time    0.0066: real time    0.0065
    --------------------------------------------
      LOOP:  cpu time   25.3327: real time   25.3594

 eigenvalue-minimisations  :  7508
 total energy-change (2. order) :-0.6338514E+00  (-0.4891496E-01)
 number of electron     543.0000218 magnetization     158.2846524
 augmentation part      269.8045778 magnetization     127.1413664

 DIPCOR: dipole corrections for dipol
 direction  3 min pos   235,
 dipolmoment           0.000000      0.000000      0.081428 electrons x Angstroem
 Tr[quadrupol]     -8929.972867

 energy correction for charged system         0.000000 eV
 dipol+quadrupol energy correction           -0.000306 eV
 added-field ion interaction         -1.500400 eV  (added to PSCEN)


 Broyden mixing:
  rms(total) = 0.58539E+00    rms(broyden)= 0.58535E+00
  rms(prec ) = 0.78284E+00
  weight for this iteration     100.00

 eigenvalues of (default mixing * dielectric matrix)
  average eigenvalue GAMMA=   0.1874
  0.1874

 Free energy of the ion-electron system (eV)
  ---------------------------------------------------
  alpha Z        PSCENC =      1563.38576597
  Ewald energy   TEWEN  =    149058.23502799
  -Hartree energ DENC   =   -189526.52083225
  -exchange      EXHF   =         0.00000000
  -V(xc)+E(xc)   XCENC  =       423.05793481
  PAW double counting   =     47566.66640203   -48156.61087496
  entropy T*S    EENTRO =         0.00000000
  eigenvalues    EBANDS =     -1682.36002155
  atomic energy  EATOM  =     40210.28846851
  Solvation  Ediel_sol  =         0.00000000
  ---------------------------------------------------
  free energy    TOTEN  =      -543.85812945 eV

  energy without entropy =     -543.85812945  energy(sigma->0) =     -543.85812945


--------------------------------------------------------------------------------------------------------




--------------------------------------- Iteration      1(   3)  ---------------------------------------


    POTLOK:  cpu time    0.4201: real time    0.4213
    SETDIJ:  cpu time    0.0241: real time    0.0241
    EDDIAG:  cpu time    4.8184: real time    4.8255
  RMM-DIIS:  cpu time   18.1817: real time   18.1930
    ORTHCH:  cpu time    1.3019: real time    1.3022
 BZINTS: Fermi energy: -0.486288;543.000000 electrons
         Band energy:***********;  BLOECHL correction: -0.032534
       DOS:  cpu time    0.0420: real time    0.0420
    CHARGE:  cpu time    0.9320: real time    0.9323
    MIXING:  cpu time    0.0065: real time    0.0065
    --------------------------------------------
      LOOP:  cpu time   25.7270: real time   25.7470

 eigenvalue-minimisations  :  7677
 total energy-change (2. order) : 0.6783293E-01  (-0.2639510E-01)
 number of electron     543.0000218 magnetization     158.2877627
 augmentation part      270.1707296 magnetization     125.8416956

 DIPCOR: dipole corrections for dipol
 direction  3 min pos   238,
 dipolmoment           0.000000      0.000000     -0.072341 electrons x Angstroem
 Tr[quadrupol]     -8929.797124

 energy correction for charged system         0.000000 eV
 dipol+quadrupol energy correction           -0.000242 eV
 added-field ion interaction          0.616026 eV  (added to PSCEN)


 Broyden mixing:
  rms(total) = 0.38941E+00    rms(broyden)= 0.38934E+00
  rms(prec ) = 0.57036E+00
  weight for this iteration     100.00

 eigenvalues of (default mixing * dielectric matrix)
  average eigenvalue GAMMA=   0.2154
  0.3602  0.0706

 Free energy of the ion-electron system (eV)
  ---------------------------------------------------
  alpha Z        PSCENC =      1565.50225638
  Ewald energy   TEWEN  =    149058.23502799
  -Hartree energ DENC   =   -189518.05938816
  -exchange      EXHF   =         0.00000000
  -V(xc)+E(xc)   XCENC  =       422.64071860
  PAW double counting   =     47562.76145437   -48152.28951581
  entropy T*S    EENTRO =         0.00000000
  eigenvalues    EBANDS =     -1692.86931841
  atomic energy  EATOM  =     40210.28846851
  Solvation  Ediel_sol  =         0.00000000
  ---------------------------------------------------
  free energy    TOTEN  =      -543.79029653 eV

  energy without entropy =     -543.79029653  energy(sigma->0) =     -543.79029653


--------------------------------------------------------------------------------------------------------




--------------------------------------- Iteration      1(   4)  ---------------------------------------


    POTLOK:  cpu time    0.4101: real time    0.4222
    SETDIJ:  cpu time    0.0240: real time    0.0240
    EDDIAG:  cpu time    4.8105: real time    4.8131
  RMM-DIIS:  cpu time   17.5714: real time   17.5864
    ORTHCH:  cpu time    1.2919: real time    1.2922
 BZINTS: Fermi energy: -0.494026;543.000000 electrons
         Band energy:***********;  BLOECHL correction: -0.021046
       DOS:  cpu time    0.0417: real time    0.0416
    CHARGE:  cpu time    0.9324: real time    0.9327
    MIXING:  cpu time    0.0067: real time    0.0067
    --------------------------------------------
      LOOP:  cpu time   25.0886: real time   25.1189

 eigenvalue-minimisations  :  7423
 total energy-change (2. order) : 0.9444913E-01  (-0.9637984E-02)
 number of electron     543.0000219 magnetization     158.2831816
 augmentation part      270.0593478 magnetization     126.3879357

 DIPCOR: dipole corrections for dipol
 direction  3 min pos   243,
 dipolmoment           0.000000      0.000000      0.013658 electrons x Angstroem
 Tr[quadrupol]     -8929.696160

 energy correction for charged system         0.000000 eV
 dipol+quadrupol energy correction           -0.000009 eV
 added-field ion interaction          0.109291 eV  (added to PSCEN)


 Broyden mixing:
  rms(total) = 0.19401E+00    rms(broyden)= 0.19397E+00
  rms(prec ) = 0.22754E+00
  weight for this iteration     100.00

 eigenvalues of (default mixing * dielectric matrix)
  average eigenvalue GAMMA=   0.2083
  0.4099  0.1527  0.0624

 Free energy of the ion-electron system (eV)
  ---------------------------------------------------
  alpha Z        PSCENC =      1564.99575471
  Ewald energy   TEWEN  =    149058.23502799
  -Hartree energ DENC   =   -189515.60777395
  -exchange      EXHF   =         0.00000000
  -V(xc)+E(xc)   XCENC  =       422.44228073
  PAW double counting   =     47564.04063116   -48153.44016880
  entropy T*S    EENTRO =         0.00000000
  eigenvalues    EBANDS =     -1694.65006775
  atomic energy  EATOM  =     40210.28846851
  Solvation  Ediel_sol  =         0.00000000
  ---------------------------------------------------
  free energy    TOTEN  =      -543.69584739 eV

  energy without entropy =     -543.69584739  energy(sigma->0) =     -543.69584739


--------------------------------------------------------------------------------------------------------




--------------------------------------- Iteration      1(   5)  ---------------------------------------


    POTLOK:  cpu time    0.4246: real time    0.4253
    SETDIJ:  cpu time    0.0242: real time    0.0242
    EDDIAG:  cpu time    4.8295: real time    4.8310
  RMM-DIIS:  cpu time   17.9239: real time   17.9403
    ORTHCH:  cpu time    1.2965: real time    1.2969
 BZINTS: Fermi energy: -0.492310;543.000000 electrons
         Band energy:***********;  BLOECHL correction: -0.022103
       DOS:  cpu time    0.0388: real time    0.0388
    CHARGE:  cpu time    0.9331: real time    0.9333
    MIXING:  cpu time    0.0066: real time    0.0066
    --------------------------------------------
      LOOP:  cpu time   25.4774: real time   25.4965

 eigenvalue-minimisations  :  7556
 total energy-change (2. order) : 0.1092048E-01  (-0.2403873E-02)
 number of electron     543.0000219 magnetization     158.2753657
 augmentation part      270.0408546 magnetization     126.3737161

 DIPCOR: dipole corrections for dipol
 direction  3 min pos   245,
 dipolmoment           0.000000      0.000000      0.004606 electrons x Angstroem
 Tr[quadrupol]     -8929.783425

 energy correction for charged system         0.000000 eV
 dipol+quadrupol energy correction           -0.000001 eV
 added-field ion interaction          0.067284 eV  (added to PSCEN)


 Broyden mixing:
  rms(total) = 0.83365E-01    rms(broyden)= 0.83354E-01
  rms(prec ) = 0.89862E-01
  weight for this iteration     100.00

 eigenvalues of (default mixing * dielectric matrix)
  average eigenvalue GAMMA=   0.1832
  0.2943  0.0651  0.1968  0.1767

 Free energy of the ion-electron system (eV)
  ---------------------------------------------------
  alpha Z        PSCENC =      1564.95375560
  Ewald energy   TEWEN  =    149058.23502799
  -Hartree energ DENC   =   -189517.39197188
  -exchange      EXHF   =         0.00000000
  -V(xc)+E(xc)   XCENC  =       422.23370518
  PAW double counting   =     47564.02206164   -48153.25508764
  entropy T*S    EENTRO =         0.00000000
  eigenvalues    EBANDS =     -1692.77088632
  atomic energy  EATOM  =     40210.28846851
  Solvation  Ediel_sol  =         0.00000000
  ---------------------------------------------------
  free energy    TOTEN  =      -543.68492691 eV

  energy without entropy =     -543.68492691  energy(sigma->0) =     -543.68492691


--------------------------------------------------------------------------------------------------------




--------------------------------------- Iteration      1(   6)  ---------------------------------------


    POTLOK:  cpu time    0.4088: real time    0.4226
    SETDIJ:  cpu time    0.0240: real time    0.0240
    EDDIAG:  cpu time    4.8093: real time    4.8116
  RMM-DIIS:  cpu time   22.0908: real time   22.1109
    ORTHCH:  cpu time    1.3040: real time    1.3044
 BZINTS: Fermi energy: -0.492437;543.000000 electrons
         Band energy:***********;  BLOECHL correction: -0.021808
       DOS:  cpu time    0.0409: real time    0.0408
    CHARGE:  cpu time    0.9303: real time    0.9305
    MIXING:  cpu time    0.0069: real time    0.0069
    --------------------------------------------
      LOOP:  cpu time   29.6148: real time   29.6518

 eigenvalue-minimisations  :  9384
 total energy-change (2. order) :-0.1981462E-02  (-0.1061858E-02)
 number of electron     543.0000219 magnetization     158.2629580
 augmentation part      270.0428182 magnetization     126.3546256

 DIPCOR: dipole corrections for dipol
 direction  3 min pos   245,
 dipolmoment           0.000000      0.000000      0.005128 electrons x Angstroem
 Tr[quadrupol]     -8929.776864

 energy correction for charged system         0.000000 eV
 dipol+quadrupol energy correction           -0.000001 eV
 added-field ion interaction          0.074918 eV  (added to PSCEN)


 Broyden mixing:
  rms(total) = 0.80773E-01    rms(broyden)= 0.80772E-01
  rms(prec ) = 0.89827E-01
  weight for this iteration     100.00

 eigenvalues of (default mixing * dielectric matrix)
  average eigenvalue GAMMA=   0.2058
  0.2879  0.2879  0.0637  0.2463  0.1431

 Free energy of the ion-electron system (eV)
  ---------------------------------------------------
  alpha Z        PSCENC =      1564.96138928
  Ewald energy   TEWEN  =    149058.23502799
  -Hartree energ DENC   =   -189517.01809323
  -exchange      EXHF   =         0.00000000
  -V(xc)+E(xc)   XCENC  =       422.14908154
  PAW double counting   =     47563.10601339   -48152.26234867
  entropy T*S    EENTRO =         0.00000000
  eigenvalues    EBANDS =     -1693.14644720
  atomic energy  EATOM  =     40210.28846851
  Solvation  Ediel_sol  =         0.00000000
  ---------------------------------------------------
  free energy    TOTEN  =      -543.68690838 eV

  energy without entropy =     -543.68690838  energy(sigma->0) =     -543.68690838


--------------------------------------------------------------------------------------------------------




--------------------------------------- Iteration      1(   7)  ---------------------------------------


    POTLOK:  cpu time    0.4087: real time    0.4219
    SETDIJ:  cpu time    0.0242: real time    0.0242
    EDDIAG:  cpu time    4.8497: real time    4.8522
  RMM-DIIS:  cpu time   24.2372: real time   24.2565
    ORTHCH:  cpu time    1.2969: real time    1.2971
 BZINTS: Fermi energy: -0.492872;543.000000 electrons
         Band energy:***********;  BLOECHL correction: -0.021744
       DOS:  cpu time    0.0410: real time    0.0410
    CHARGE:  cpu time    0.9326: real time    0.9336
    MIXING:  cpu time    0.0071: real time    0.0071
    --------------------------------------------
      LOOP:  cpu time   31.7974: real time   31.8336

 eigenvalue-minimisations  : 10357
 total energy-change (2. order) :-0.2392965E-02  (-0.4277599E-03)
 number of electron     543.0000219 magnetization     158.2395416
 augmentation part      270.0475349 magnetization     126.3169236

 DIPCOR: dipole corrections for dipol
 direction  3 min pos   243,
 dipolmoment           0.000000      0.000000      0.007380 electrons x Angstroem
 Tr[quadrupol]     -8929.780600

 energy correction for charged system         0.000000 eV
 dipol+quadrupol energy correction           -0.000003 eV
 added-field ion interaction          0.059053 eV  (added to PSCEN)


 Broyden mixing:
  rms(total) = 0.76384E-01    rms(broyden)= 0.76384E-01
  rms(prec ) = 0.89560E-01
  weight for this iteration     100.00

 eigenvalues of (default mixing * dielectric matrix)
  average eigenvalue GAMMA=   0.4001
  0.7654  0.7654  0.4775  0.0640  0.1462  0.1821

 Free energy of the ion-electron system (eV)
  ---------------------------------------------------
  alpha Z        PSCENC =      1564.94552255
  Ewald energy   TEWEN  =    149058.23502799
  -Hartree energ DENC   =   -189516.86136190
  -exchange      EXHF   =         0.00000000
  -V(xc)+E(xc)   XCENC  =       422.04420796
  PAW double counting   =     47561.59481659   -48150.67395693
  entropy T*S    EENTRO =         0.00000000
  eigenvalues    EBANDS =     -1693.26202611
  atomic energy  EATOM  =     40210.28846851
  Solvation  Ediel_sol  =         0.00000000
  ---------------------------------------------------
  free energy    TOTEN  =      -543.68930134 eV

  energy without entropy =     -543.68930134  energy(sigma->0) =     -543.68930134


--------------------------------------------------------------------------------------------------------




--------------------------------------- Iteration      1(   8)  ---------------------------------------


    POTLOK:  cpu time    0.4149: real time    0.4251
    SETDIJ:  cpu time    0.0241: real time    0.0241
    EDDIAG:  cpu time    4.8510: real time    4.8528
  RMM-DIIS:  cpu time   18.8698: real time   18.8858
    ORTHCH:  cpu time    1.2955: real time    1.2959
 BZINTS: Fermi energy: -0.492270;543.000000 electrons
         Band energy:***********;  BLOECHL correction: -0.022066
       DOS:  cpu time    0.0432: real time    0.0432
    CHARGE:  cpu time    0.9335: real time    0.9337
    MIXING:  cpu time    0.0072: real time    0.0073
    --------------------------------------------
      LOOP:  cpu time   26.4393: real time   26.4679

 eigenvalue-minimisations  :  7986
 total energy-change (2. order) :-0.2022677E-02  (-0.4982096E-03)
 number of electron     543.0000219 magnetization     158.2024066
 augmentation part      270.0555859 magnetization     126.2535731

 DIPCOR: dipole corrections for dipol
 direction  3 min pos   246,
 dipolmoment           0.000000      0.000000      0.002979 electrons x Angstroem
 Tr[quadrupol]     -8929.788226

 energy correction for charged system         0.000000 eV
 dipol+quadrupol energy correction           -0.000000 eV
 added-field ion interaction          0.053354 eV  (added to PSCEN)


 Broyden mixing:
  rms(total) = 0.78830E-01    rms(broyden)= 0.78829E-01
  rms(prec ) = 0.86598E-01
  weight for this iteration     100.00

 eigenvalues of (default mixing * dielectric matrix)
  average eigenvalue GAMMA=   0.4500
  1.0282  1.0282  0.5304  0.0640  0.1416  0.1851  0.1727

 Free energy of the ion-electron system (eV)
  ---------------------------------------------------
  alpha Z        PSCENC =      1564.93982582
  Ewald energy   TEWEN  =    149058.23502799
  -Hartree energ DENC   =   -189516.78089727
  -exchange      EXHF   =         0.00000000
  -V(xc)+E(xc)   XCENC  =       421.92629159
  PAW double counting   =     47558.93778002   -48147.94794251
  entropy T*S    EENTRO =         0.00000000
  eigenvalues    EBANDS =     -1693.28987816
  atomic energy  EATOM  =     40210.28846851
  Solvation  Ediel_sol  =         0.00000000
  ---------------------------------------------------
  free energy    TOTEN  =      -543.69132402 eV

  energy without entropy =     -543.69132402  energy(sigma->0) =     -543.69132402


--------------------------------------------------------------------------------------------------------




--------------------------------------- Iteration      1(   9)  ---------------------------------------


    POTLOK:  cpu time    0.4103: real time    0.4241
    SETDIJ:  cpu time    0.0240: real time    0.0244
    EDDIAG:  cpu time    4.8451: real time    4.8479
  RMM-DIIS:  cpu time   18.5300: real time   18.5459
    ORTHCH:  cpu time    1.2973: real time    1.2976
 BZINTS: Fermi energy: -0.493090;543.000000 electrons
         Band energy:***********;  BLOECHL correction: -0.022565
       DOS:  cpu time    0.0432: real time    0.0432
    CHARGE:  cpu time    0.9317: real time    0.9321
    MIXING:  cpu time    0.0079: real time    0.0079
    --------------------------------------------
      LOOP:  cpu time   26.0894: real time   26.1231

 eigenvalue-minimisations  :  7830
 total energy-change (2. order) : 0.2866629E-02  (-0.3905075E-03)
 number of electron     543.0000219 magnetization     158.1695200
 augmentation part      270.0710790 magnetization     126.1734570

 DIPCOR: dipole corrections for dipol
 direction  3 min pos   247,
 dipolmoment           0.000000      0.000000     -0.000495 electrons x Angstroem
 Tr[quadrupol]     -8929.777320

 energy correction for charged system         0.000000 eV
 dipol+quadrupol energy correction           -0.000000 eV
 added-field ion interaction         -0.010495 eV  (added to PSCEN)


 Broyden mixing:
  rms(total) = 0.42465E-01    rms(broyden)= 0.42463E-01
  rms(prec ) = 0.44088E-01
  weight for this iteration     100.00

 eigenvalues of (default mixing * dielectric matrix)
  average eigenvalue GAMMA=   0.4897
  1.2151  1.2151  0.4675  0.4675  0.0640  0.1940  0.1446  0.1498

 Free energy of the ion-electron system (eV)
  ---------------------------------------------------
  alpha Z        PSCENC =      1564.87597745
  Ewald energy   TEWEN  =    149058.23502799
  -Hartree energ DENC   =   -189516.28004342
  -exchange      EXHF   =         0.00000000
  -V(xc)+E(xc)   XCENC  =       421.78534976
  PAW double counting   =     47554.99117716   -48143.92391080
  entropy T*S    EENTRO =         0.00000000
  eigenvalues    EBANDS =     -1693.66050404
  atomic energy  EATOM  =     40210.28846851
  Solvation  Ediel_sol  =         0.00000000
  ---------------------------------------------------
  free energy    TOTEN  =      -543.68845739 eV

  energy without entropy =     -543.68845739  energy(sigma->0) =     -543.68845739


--------------------------------------------------------------------------------------------------------




--------------------------------------- Iteration      1(  10)  ---------------------------------------


    POTLOK:  cpu time    0.4082: real time    0.4201
    SETDIJ:  cpu time    0.0242: real time    0.0242
    EDDIAG:  cpu time    4.8325: real time    4.8341
  RMM-DIIS:  cpu time   19.5368: real time   19.5512
    ORTHCH:  cpu time    1.2951: real time    1.2954
 BZINTS: Fermi energy: -0.492778;543.000000 electrons
         Band energy:***********;  BLOECHL correction: -0.022413
       DOS:  cpu time    0.0411: real time    0.0411
    CHARGE:  cpu time    0.9322: real time    0.9332
    MIXING:  cpu time    0.0076: real time    0.0075
    --------------------------------------------
      LOOP:  cpu time   27.0777: real time   27.1068

 eigenvalue-minimisations  :  8288
 total energy-change (2. order) : 0.2903156E-02  (-0.3205278E-03)
 number of electron     543.0000219 magnetization     158.1243770
 augmentation part      270.0774871 magnetization     126.1182153

 DIPCOR: dipole corrections for dipol
 direction  3 min pos   248,
 dipolmoment           0.000000      0.000000     -0.000794 electrons x Angstroem
 Tr[quadrupol]     -8929.782339

 energy correction for charged system         0.000000 eV
 dipol+quadrupol energy correction           -0.000000 eV
 added-field ion interaction         -0.019457 eV  (added to PSCEN)


 Broyden mixing:
  rms(total) = 0.41350E-01    rms(broyden)= 0.41349E-01
  rms(prec ) = 0.43789E-01
  weight for this iteration     100.00

 eigenvalues of (default mixing * dielectric matrix)
  average eigenvalue GAMMA=   0.5182
  1.3844  1.3844  0.5757  0.5757  0.0640  0.1923  0.1923  0.1430  0.1521

 Free energy of the ion-electron system (eV)
  ---------------------------------------------------
  alpha Z        PSCENC =      1564.86701479
  Ewald energy   TEWEN  =    149058.23502799
  -Hartree energ DENC   =   -189516.26293144
  -exchange      EXHF   =         0.00000000
  -V(xc)+E(xc)   XCENC  =       421.70307149
  PAW double counting   =     47552.05817101   -48140.93700437
  entropy T*S    EENTRO =         0.00000000
  eigenvalues    EBANDS =     -1693.63737221
  atomic energy  EATOM  =     40210.28846851
  Solvation  Ediel_sol  =         0.00000000
  ---------------------------------------------------
  free energy    TOTEN  =      -543.68555423 eV

  energy without entropy =     -543.68555423  energy(sigma->0) =     -543.68555423


--------------------------------------------------------------------------------------------------------




--------------------------------------- Iteration      1(  11)  ---------------------------------------


    POTLOK:  cpu time    0.4122: real time    0.4283
    SETDIJ:  cpu time    0.0244: real time    0.0244
    EDDIAG:  cpu time    4.8367: real time    4.8384
  RMM-DIIS:  cpu time   19.2385: real time   19.2504
    ORTHCH:  cpu time    1.2920: real time    1.2924
 BZINTS: Fermi energy: -0.492624;543.000000 electrons
         Band energy:***********;  BLOECHL correction: -0.022281
       DOS:  cpu time    0.0432: real time    0.0433
    CHARGE:  cpu time    0.9316: real time    0.9366
    MIXING:  cpu time    0.0079: real time    0.0079
    --------------------------------------------
      LOOP:  cpu time   26.7866: real time   26.8218

 eigenvalue-minimisations  :  8068
 total energy-change (2. order) : 0.5541976E-02  (-0.1655416E-03)
 number of electron     543.0000219 magnetization     158.0841606
 augmentation part      270.0808980 magnetization     126.0797023

 DIPCOR: dipole corrections for dipol
 direction  3 min pos   240,
 dipolmoment           0.000000      0.000000      0.000064 electrons x Angstroem
 Tr[quadrupol]     -8929.787820

 energy correction for charged system         0.000000 eV
 dipol+quadrupol energy correction           -0.000000 eV
 added-field ion interaction         -0.000122 eV  (added to PSCEN)


 Broyden mixing:
  rms(total) = 0.28104E-01    rms(broyden)= 0.28103E-01
  rms(prec ) = 0.31259E-01
  weight for this iteration     100.00

 eigenvalues of (default mixing * dielectric matrix)
  average eigenvalue GAMMA=   0.5779
  1.6230  1.6230  0.6350  0.6350  0.5278  0.0640  0.1986  0.1806  0.1501  0.1421

 Free energy of the ion-electron system (eV)
  ---------------------------------------------------
  alpha Z        PSCENC =      1564.88634980
  Ewald energy   TEWEN  =    149058.23502799
  -Hartree energ DENC   =   -189516.23997950
  -exchange      EXHF   =         0.00000000
  -V(xc)+E(xc)   XCENC  =       421.60951303
  PAW double counting   =     47548.51413400   -48137.32830542
  entropy T*S    EENTRO =         0.00000000
  eigenvalues    EBANDS =     -1693.64522067
  atomic energy  EATOM  =     40210.28846851
  Solvation  Ediel_sol  =         0.00000000
  ---------------------------------------------------
  free energy    TOTEN  =      -543.68001226 eV

  energy without entropy =     -543.68001226  energy(sigma->0) =     -543.68001226


--------------------------------------------------------------------------------------------------------




--------------------------------------- Iteration      1(  12)  ---------------------------------------


    POTLOK:  cpu time    0.4100: real time    0.4242
    SETDIJ:  cpu time    0.0241: real time    0.0241
    EDDIAG:  cpu time    4.8572: real time    4.8596
  RMM-DIIS:  cpu time   20.0509: real time   20.0625
    ORTHCH:  cpu time    1.2886: real time    1.2888
 BZINTS: Fermi energy: -0.492245;543.000000 electrons
         Band energy:***********;  BLOECHL correction: -0.022290
       DOS:  cpu time    0.0410: real time    0.0410
    CHARGE:  cpu time    0.9304: real time    0.9306
    MIXING:  cpu time    0.0080: real time    0.0080
    --------------------------------------------
      LOOP:  cpu time   27.6100: real time   27.6388

 eigenvalue-minimisations  :  8454
 total energy-change (2. order) : 0.2649615E-02  (-0.1684546E-03)
 number of electron     543.0000219 magnetization     158.0501991
 augmentation part      270.0818038 magnetization     126.0457847

 DIPCOR: dipole corrections for dipol
 direction  3 min pos   236,
 dipolmoment           0.000000      0.000000      0.000729 electrons x Angstroem
 Tr[quadrupol]     -8929.795259

 energy correction for charged system         0.000000 eV
 dipol+quadrupol energy correction           -0.000000 eV
 added-field ion interaction         -0.011031 eV  (added to PSCEN)


 Broyden mixing:
  rms(total) = 0.34461E-01    rms(broyden)= 0.34460E-01
  rms(prec ) = 0.39202E-01
  weight for this iteration     100.00

 eigenvalues of (default mixing * dielectric matrix)
  average eigenvalue GAMMA=   0.5839
  1.7713  1.7713  0.7098  0.7098  0.5615  0.0640  0.1877  0.1877  0.1699  0.1429
  0.1467

 Free energy of the ion-electron system (eV)
  ---------------------------------------------------
  alpha Z        PSCENC =      1564.87544172
  Ewald energy   TEWEN  =    149058.23502799
  -Hartree energ DENC   =   -189516.46307392
  -exchange      EXHF   =         0.00000000
  -V(xc)+E(xc)   XCENC  =       421.56497585
  PAW double counting   =     47546.34995783   -48135.13188287
  entropy T*S    EENTRO =         0.00000000
  eigenvalues    EBANDS =     -1693.39627776
  atomic energy  EATOM  =     40210.28846851
  Solvation  Ediel_sol  =         0.00000000
  ---------------------------------------------------
  free energy    TOTEN  =      -543.67736264 eV

  energy without entropy =     -543.67736264  energy(sigma->0) =     -543.67736264


--------------------------------------------------------------------------------------------------------




--------------------------------------- Iteration      1(  13)  ---------------------------------------


    POTLOK:  cpu time    0.4116: real time    0.4242
    SETDIJ:  cpu time    0.0241: real time    0.0241
    EDDIAG:  cpu time    4.8541: real time    4.8606
  RMM-DIIS:  cpu time   19.0737: real time   19.0855
    ORTHCH:  cpu time    1.2993: real time    1.3005
 BZINTS: Fermi energy: -0.491949;543.000000 electrons
         Band energy:***********;  BLOECHL correction: -0.022296
       DOS:  cpu time    0.0421: real time    0.0421
    CHARGE:  cpu time    0.9305: real time    0.9307
    MIXING:  cpu time    0.0082: real time    0.0082
    --------------------------------------------
      LOOP:  cpu time   26.6437: real time   26.6759

 eigenvalue-minimisations  :  8046
 total energy-change (2. order) : 0.1792196E-02  (-0.6438251E-04)
 number of electron     543.0000219 magnetization     158.0283105
 augmentation part      270.0835886 magnetization     126.0164923

 DIPCOR: dipole corrections for dipol
 direction  3 min pos   234,
 dipolmoment           0.000000      0.000000      0.000606 electrons x Angstroem
 Tr[quadrupol]     -8929.798305

 energy correction for charged system         0.000000 eV
 dipol+quadrupol energy correction           -0.000000 eV
 added-field ion interaction         -0.013168 eV  (added to PSCEN)


 Broyden mixing:
  rms(total) = 0.21408E-01    rms(broyden)= 0.21408E-01
  rms(prec ) = 0.25073E-01
  weight for this iteration     100.00

 eigenvalues of (default mixing * dielectric matrix)
  average eigenvalue GAMMA=   0.5867
  1.8613  1.8613  0.7485  0.7485  0.5448  0.3725  0.0640  0.2088  0.1821  0.1423
  0.1505  0.1554

 Free energy of the ion-electron system (eV)
  ---------------------------------------------------
  alpha Z        PSCENC =      1564.87330465
  Ewald energy   TEWEN  =    149058.23502799
  -Hartree energ DENC   =   -189516.53103900
  -exchange      EXHF   =         0.00000000
  -V(xc)+E(xc)   XCENC  =       421.52992718
  PAW double counting   =     47544.80743823   -48133.56394392
  entropy T*S    EENTRO =         0.00000000
  eigenvalues    EBANDS =     -1693.31475410
  atomic energy  EATOM  =     40210.28846851
  Solvation  Ediel_sol  =         0.00000000
  ---------------------------------------------------
  free energy    TOTEN  =      -543.67557045 eV

  energy without entropy =     -543.67557045  energy(sigma->0) =     -543.67557045


--------------------------------------------------------------------------------------------------------




--------------------------------------- Iteration      1(  14)  ---------------------------------------


    POTLOK:  cpu time    0.4148: real time    0.4250
    SETDIJ:  cpu time    0.0242: real time    0.0242
    EDDIAG:  cpu time    4.8344: real time    4.8359
  RMM-DIIS:  cpu time   21.2041: real time   21.2206
    ORTHCH:  cpu time    1.2969: real time    1.2972
 BZINTS: Fermi energy: -0.491773;543.000000 electrons
         Band energy:***********;  BLOECHL correction: -0.022435
       DOS:  cpu time    0.0420: real time    0.0420
    CHARGE:  cpu time    0.9298: real time    0.9308
    MIXING:  cpu time    0.0084: real time    0.0084
    --------------------------------------------
      LOOP:  cpu time   28.7546: real time   28.7842

 eigenvalue-minimisations  :  8977
 total energy-change (2. order) :-0.5615730E-03  (-0.5059424E-04)
 number of electron     543.0000219 magnetization     157.9926908
 augmentation part      270.0845806 magnetization     125.9748953

 DIPCOR: dipole corrections for dipol
 direction  3 min pos   233,
 dipolmoment           0.000000      0.000000     -0.000212 electrons x Angstroem
 Tr[quadrupol]     -8929.802699

 energy correction for charged system         0.000000 eV
 dipol+quadrupol energy correction           -0.000000 eV
 added-field ion interaction          0.005313 eV  (added to PSCEN)


 Broyden mixing:
  rms(total) = 0.18345E-01    rms(broyden)= 0.18345E-01
  rms(prec ) = 0.20449E-01
  weight for this iteration     100.00

 eigenvalues of (default mixing * dielectric matrix)
  average eigenvalue GAMMA=   0.6003
  1.9589  1.9589  0.8557  0.8557  0.5486  0.5486  0.0640  0.2035  0.1837  0.1837
  0.1540  0.1424  0.1457

 Free energy of the ion-electron system (eV)
  ---------------------------------------------------
  alpha Z        PSCENC =      1564.89178546
  Ewald energy   TEWEN  =    149058.23502799
  -Hartree energ DENC   =   -189516.61076645
  -exchange      EXHF   =         0.00000000
  -V(xc)+E(xc)   XCENC  =       421.50770764
  PAW double counting   =     47544.07836997   -48132.81849582
  entropy T*S    EENTRO =         0.00000000
  eigenvalues    EBANDS =     -1693.24822933
  atomic energy  EATOM  =     40210.28846851
  Solvation  Ediel_sol  =         0.00000000
  ---------------------------------------------------
  free energy    TOTEN  =      -543.67613202 eV

[...]
   0.175E+01 -.528E+01 -.449E+03   -.179E+01 0.507E+01 0.449E+03   0.511E-01 0.199E+00 0.631E+00   0.175E-04 -.199E-04 0.139E-02
   -.184E+00 0.322E+00 0.750E+03   0.220E+00 -.346E+00 -.750E+03   -.338E-01 -.276E-01 -.396E+00   -.129E-04 -.151E-04 0.128E-02
   0.102E+03 0.474E+02 -.166E+04   -.104E+03 -.486E+02 0.165E+04   0.165E+01 0.122E+01 0.273E+01   -.640E-04 -.479E-05 0.580E-03
   0.165E+00 -.167E+00 0.192E+04   -.126E+00 0.154E+00 -.192E+04   -.452E-01 0.673E-02 -.337E+01   -.574E-04 0.910E-04 0.433E-03
   0.299E+01 -.889E+01 -.437E+03   -.261E+01 0.885E+01 0.437E+03   -.393E+00 0.392E-01 0.725E+00   -.535E-04 0.291E-04 0.120E-02
   -.310E+00 0.222E+01 0.749E+03   0.307E+00 -.232E+01 -.749E+03   0.717E-01 0.167E-01 -.401E+00   -.111E-04 -.219E-04 0.131E-02
   -.649E+02 -.440E+02 -.160E+04   0.657E+02 0.450E+02 0.159E+04   -.789E+00 -.921E+00 0.314E+01   -.132E-05 -.778E-04 0.534E-03
   0.234E+00 -.186E+00 0.192E+04   -.256E+00 0.137E+00 -.192E+04   0.308E-01 0.442E-01 -.338E+01   0.284E-04 0.488E-04 0.458E-03
   -.127E+01 -.636E+01 -.445E+03   0.125E+01 0.611E+01 0.444E+03   0.249E-01 0.246E+00 0.613E+00   0.580E-04 -.113E-03 0.122E-02
   0.131E+01 0.960E+00 0.752E+03   -.126E+01 -.927E+00 -.752E+03   -.781E-01 -.557E-01 -.429E+00   0.597E-04 -.741E-05 0.136E-02
   0.388E+02 0.276E+02 -.166E+04   -.394E+02 -.280E+02 0.166E+04   0.545E+00 0.381E+00 0.412E+01   0.389E-04 -.190E-03 0.511E-03
   -.144E+00 -.104E+00 0.192E+04   0.172E+00 0.124E+00 -.192E+04   -.302E-01 -.214E-01 -.331E+01   0.638E-04 0.982E-04 0.430E-03
   -.456E+01 -.322E+01 -.439E+03   0.466E+01 0.330E+01 0.438E+03   -.110E+00 -.777E-01 0.112E+01   -.217E-04 -.969E-04 0.126E-02
   -.176E+01 0.200E+01 0.750E+03   0.177E+01 -.211E+01 -.750E+03   0.478E-01 0.283E-01 -.443E+00   -.347E-04 -.716E-04 0.131E-02
   -.793E+02 0.630E+02 -.167E+04   0.807E+02 -.644E+02 0.167E+04   -.141E+01 0.139E+01 0.253E+01   0.379E-04 0.103E-04 0.514E-03
   0.805E-02 -.166E-01 0.192E+04   0.518E-01 0.586E-01 -.192E+04   -.388E-01 -.275E-01 -.343E+01   -.252E-04 0.245E-05 0.421E-03
   0.547E+00 0.276E+00 -.465E+03   -.345E+00 -.133E+00 0.465E+03   -.204E+00 -.145E+00 -.597E-01   -.358E-05 0.213E-03 0.138E-02
   0.136E+01 -.188E+01 0.748E+03   -.143E+01 0.187E+01 -.748E+03   0.282E-01 0.469E-01 -.356E+00   0.838E-05 0.505E-04 0.128E-02
   0.252E+02 -.117E+03 -.168E+04   -.259E+02 0.119E+03 0.168E+04   0.675E+00 -.188E+01 0.247E+01   -.177E-03 0.133E-03 0.533E-03
   0.178E+00 -.626E-01 0.192E+04   -.188E+00 0.707E-01 -.192E+04   0.178E-01 -.719E-02 -.340E+01   -.654E-04 0.345E-04 0.394E-03
   0.196E+01 -.279E+01 -.457E+03   -.220E+01 0.294E+01 0.456E+03   0.257E+00 -.152E+00 0.647E+00   -.171E-03 0.788E-04 0.130E-02
   0.168E+00 -.181E+01 0.748E+03   -.121E+00 0.185E+01 -.748E+03   -.483E-01 -.300E-01 -.500E+00   -.216E-04 0.171E-05 0.125E-02
   -.741E+01 -.256E+02 -.170E+04   0.870E+01 0.260E+02 0.170E+04   -.129E+01 -.369E+00 0.453E+01   -.274E-04 0.933E-04 0.592E-03
   0.147E+00 -.123E+00 0.192E+04   -.128E+00 0.159E+00 -.192E+04   -.110E-01 -.151E-01 -.350E+01   0.657E-04 -.314E-04 0.417E-03
   0.445E+01 0.273E+01 -.455E+03   -.426E+01 -.256E+01 0.456E+03   -.192E+00 -.195E+00 -.180E+00   0.225E-04 0.259E-04 0.125E-02
   0.124E+01 -.234E+01 0.750E+03   -.134E+01 0.239E+01 -.750E+03   0.426E-01 0.349E-01 -.442E+00   0.849E-05 -.334E-04 0.121E-02
   0.329E+02 -.957E+02 -.167E+04   -.337E+02 0.975E+02 0.167E+04   0.838E+00 -.180E+01 0.253E+01   0.132E-03 -.256E-04 0.597E-03
   -.308E+00 -.189E+00 0.192E+04   0.269E+00 0.149E+00 -.192E+04   0.376E-01 0.252E-01 -.337E+01   0.203E-04 -.681E-04 0.391E-03
   -.438E+01 0.322E+01 -.450E+03   0.417E+01 -.319E+01 0.449E+03   0.205E+00 -.204E-01 0.631E+00   0.145E-03 0.107E-03 0.139E-02
   -.211E+01 -.156E+01 0.748E+03   0.215E+01 0.159E+01 -.748E+03   0.189E-02 0.694E-03 -.553E+00   -.475E-07 0.652E-04 0.118E-02
   -.112E+02 -.796E+01 -.171E+04   0.130E+02 0.920E+01 0.171E+04   -.171E+01 -.122E+01 0.501E+01   0.795E-04 0.146E-03 0.631E-03
   0.748E+01 0.524E+01 -.170E+04   -.617E+01 -.432E+01 0.173E+04   -.127E+01 -.894E+00 -.248E+02   -.824E-04 -.532E-04 -.876E-04
   -.383E+02 0.332E+02 -.170E+04   0.388E+02 -.320E+02 0.172E+04   -.538E+00 -.118E+01 -.252E+02   0.128E-03 0.359E-04 -.191E-03
   -.237E+02 -.167E+02 -.170E+04   0.252E+02 0.178E+02 0.173E+04   -.151E+01 -.107E+01 -.246E+02   -.760E-05 -.131E-04 -.161E-04
   0.185E+02 -.471E+02 -.170E+04   -.172E+02 0.472E+02 0.173E+04   -.131E+01 -.113E+00 -.253E+02   -.151E-03 -.523E-04 -.187E-04
   -.115E+02 -.818E+01 -.165E+04   0.148E+02 0.105E+02 0.162E+04   -.324E+01 -.235E+01 0.208E+02   0.144E-03 -.100E-03 -.126E-03
   0.375E+01 0.277E+01 -.341E+03   -.416E+01 -.307E+01 0.349E+03   0.413E+00 0.306E+00 -.820E+01   0.931E-05 -.707E-05 -.496E-04
 -----------------------------------------------------------------------------------------------
   0.108E+02 0.771E+01 0.875E+02   -.169E-13 -.189E-12 0.352E-11   -.108E+02 -.772E+01 -.875E+02   0.374E-04 -.151E-03 0.570E-01
 
 
 POSITION                                       TOTAL-FORCE (eV/Angst)
 -----------------------------------------------------------------------------------
      1.40594      1.52230      2.00000         0.003836      0.006813      0.324090
      1.40558      1.50247      6.00700         0.001210      0.009629      0.005986
      2.23340      0.35210      4.02685        -0.037515     -0.027542     -0.387088
      2.14182      0.28647      8.02430        -0.078093     -0.055051      0.021599
      3.88832      1.52230      2.00000        -0.010437     -0.007247      0.306631
      3.89013      1.52301      6.00104        -0.006261     -0.003011      0.008861
      4.71578      0.35210      4.02685         0.048675     -0.058599     -0.314664
      4.68098      0.33341      8.00008         0.059361      0.010077     -0.047227
      6.37069      1.52230      2.00000         0.009850     -0.006793      0.335384
      6.37075      1.51903      6.01932         0.004962     -0.005224      0.015252
      7.19815      0.35210      4.02685        -0.046017      0.018255     -0.363890
      7.11385      0.27015      7.98453        -0.015939     -0.012250      0.028463
      8.85307      1.52230      2.00000        -0.007550     -0.003903      0.344250
      8.85654      1.52351      6.00614         0.003495     -0.005032      0.026518
      9.68053      0.35210      4.02685         0.028190     -0.054745     -0.230046
      9.65391      0.30617      8.00380         0.030588      0.003857     -0.025792
      2.23340      3.86271      2.00000         0.022316      0.000767      0.360231
      2.24098      3.85404      6.01434        -0.023775      0.000326      0.028941
      3.06086      2.69251      4.02685        -0.037645      0.063587     -0.313888
      3.03315      2.66496      8.00036         0.023452      0.054703     -0.048998
      4.71578      3.86271      2.00000        -0.003177      0.011702      0.335320
      4.71331      3.86341      6.01883        -0.006318      0.005668      0.019758
      5.54324      2.69251      4.02685         0.024865      0.015517     -0.299867
      5.51793      2.67410      7.97118        -0.002415     -0.004296     -0.001665
      7.19815      3.86271      2.00000         0.020892      0.014510      0.338338
      7.20597      3.86794      6.04389        -0.001710     -0.001564      0.022673
      8.02561      2.69251      4.02685        -0.049511      0.088958     -0.244924
      8.05658      2.64822      8.02436         0.023020     -0.031049     -0.022422
      9.68053      3.86271      2.00000        -0.000856      0.010210      0.330739
      9.67560      3.86638      6.00438        -0.006167      0.004664      0.013748
     10.50799      2.69251      4.02685         0.009903     -0.005646     -0.389584
     10.52085      2.69286      7.90106        -0.007700      0.006200     -0.013131
      3.06086      6.20311      2.00000        -0.014470      0.004332      0.315113
      3.05858      6.19345      6.00453         0.006583     -0.008424      0.023362
      3.88832      5.03291      4.02685         0.002738     -0.050545     -0.365212
      3.78331      4.98028      7.98393        -0.029644     -0.020792      0.019565
      5.54324      6.20311      2.00000        -0.006286     -0.005719      0.344076
      5.54551      6.20544      6.00584        -0.004574      0.005800      0.028404
      6.37069      5.03291      4.02685         0.068530     -0.078018     -0.246204
      6.33862      5.07570      8.02429        -0.016000      0.034113     -0.021275
      8.02561      6.20311      2.00000         0.009577     -0.004241      0.330792
      8.02714      6.19677      6.00453         0.004200     -0.006541      0.011559
      8.85307      5.03291      4.02685        -0.031230     -0.022459     -0.366270
      8.82436      5.01325      7.99420        -0.060511     -0.046469      0.013810
     10.50799      6.20311      2.00000        -0.001893     -0.001502      0.285667
     10.50726      6.20237      5.99084        -0.001473      0.000491      0.013548
     11.33544      5.03291      4.02685         0.059098     -0.082016     -0.326218
     11.32435      4.99133      7.98088         0.012192     -0.009682     -0.026382
      3.88832      8.54352      2.00000         0.021098      0.014599      0.331735
      3.88540      8.54114      6.02207        -0.002608     -0.002168      0.003045
      4.71578      7.37332      4.02685        -0.041815      0.043969     -0.231142
      4.66389      7.36201      8.00406         0.010279      0.037409     -0.030909
      6.37069      8.54352      2.00000         0.007785      0.001159      0.323921
      6.35200      8.54903      6.00681         0.008096      0.000203      0.007248
      7.19815      7.37332      4.02685        -0.001161      0.009417     -0.390494
      7.20151      7.38422      7.90147         0.009858     -0.008254     -0.014970
      8.85307      8.54352      2.00000         0.008423      0.020609      0.360350
      8.84732      8.55253      6.01438        -0.005732     -0.017840      0.027053
      9.68053      7.37332      4.02685        -0.057253      0.081687     -0.326542
      9.63713      7.37672      7.98065        -0.003034      0.012748     -0.024310
     11.33544      8.54352      2.00000        -0.000750     -0.015350      0.315538
     11.32573      8.54440      6.00479        -0.006203      0.009116      0.020203
     12.16290      7.37332      4.02685         0.041540      0.029053     -0.367817
     12.15481      7.36766      7.92649         0.029599      0.020504     -0.022800
      3.41337      1.18538      9.08713         0.044149      0.032183      0.005431
      8.36798      1.10201      9.08495        -0.035944      0.022691     -0.064075
     10.14790      5.94865      9.06451        -0.028170     -0.019178     -0.019255
      4.98336      5.88362      9.08445         0.015570     -0.036192     -0.052445
      6.75642      3.54957      9.32146         0.011267      0.007471     -0.027843
      6.70561      3.51209     10.29413         0.004639      0.004348     -0.019853
 -----------------------------------------------------------------------------------
    total drift:                               -0.004810     -0.011558     -0.008903


--------------------------------------------------------------------------------------------------------



  FREE ENERGIE OF THE ION-ELECTRON SYSTEM (eV)
  ---------------------------------------------------
  free  energy   TOTEN  =      -557.11277146 eV

  energy  without entropy=     -557.11277146  energy(sigma->0) =     -557.11277146
 


--------------------------------------------------------------------------------------------------------


    POTLOK:  cpu time    0.4322: real time    0.4324


--------------------------------------------------------------------------------------------------------


 stress matrix after NEB project (eV)
    -39.92646      2.70925     -0.14336
      2.70925    -41.83384     -0.06907
     -0.14336     -0.06907    -12.30399
  FORCES: max atom, RMS     0.097957    0.030749
  FORCE total and by dimension    0.257268    0.078093
  Stress total and by dimension   59.247884   41.833844
 writing wavefunctions
     LOOP+:  cpu time 1084.9381: real time 1117.7160
    4ORBIT:  cpu time    0.0000: real time    0.0000
 


 total charge     
 
# of ion       s       p       d       tot
------------------------------------------
    1        0.465   0.375   6.198   7.039
    2        0.478   0.528   6.253   7.258
    3        0.475   0.514   6.236   7.225
    4        0.466   0.496   6.245   7.207
    5        0.467   0.376   6.194   7.036
    6        0.475   0.522   6.243   7.240
    7        0.473   0.511   6.239   7.224
    8        0.472   0.502   6.251   7.226
    9        0.465   0.376   6.198   7.038
   10        0.476   0.522   6.244   7.242
   11        0.473   0.512   6.234   7.219
   12        0.475   0.510   6.264   7.249
   13        0.466   0.376   6.196   7.037
   14        0.477   0.522   6.240   7.240
   15        0.473   0.510   6.239   7.222
   16        0.475   0.509   6.249   7.232
   17        0.466   0.373   6.201   7.040
   18        0.486   0.538   6.237   7.260
   19        0.473   0.511   6.239   7.224
   20        0.472   0.502   6.251   7.225
   21        0.465   0.376   6.198   7.038
   22        0.476   0.522   6.244   7.242
   23        0.472   0.509   6.234   7.215
   24        0.433   0.430   6.215   7.079
   25        0.466   0.374   6.200   7.040
   26        0.479   0.522   6.223   7.223
   27        0.471   0.509   6.235   7.215
   28        0.434   0.521   6.252   7.207
   29        0.465   0.376   6.197   7.038
   30        0.478   0.529   6.255   7.262
   31        0.473   0.511   6.234   7.219
   32        0.473   0.407   6.227   7.107
   33        0.465   0.376   6.197   7.038
   34        0.479   0.529   6.252   7.260
   35        0.473   0.512   6.234   7.219
   36        0.475   0.511   6.265   7.251
   37        0.466   0.376   6.196   7.037
   38        0.477   0.522   6.240   7.240
   39        0.471   0.509   6.235   7.215
   40        0.434   0.521   6.252   7.207
   41        0.465   0.376   6.197   7.038
   42        0.478   0.529   6.255   7.263
   43        0.474   0.513   6.237   7.224
   44        0.446   0.465   6.237   7.149
   45        0.467   0.376   6.194   7.036
   46        0.476   0.521   6.246   7.243
   47        0.473   0.513   6.239   7.225
   48        0.479   0.513   6.262   7.254
   49        0.467   0.373   6.199   7.039
   50        0.485   0.536   6.237   7.258
   51        0.473   0.510   6.239   7.222
   52        0.475   0.509   6.249   7.233
   53        0.465   0.375   6.198   7.039
   54        0.478   0.528   6.253   7.258
   55        0.473   0.511   6.234   7.219
   56        0.473   0.407   6.227   7.107
   57        0.466   0.373   6.201   7.040
   58        0.486   0.538   6.237   7.260
   59        0.473   0.513   6.239   7.225
   60        0.479   0.513   6.262   7.254
   61        0.465   0.376   6.197   7.038
   62        0.479   0.529   6.252   7.260
   63        0.474   0.512   6.235   7.222
   64        0.459   0.394   6.223   7.077
   65        1.578   3.375   0.000   4.953
   66        1.579   3.374   0.000   4.953
   67        1.577   3.370   0.000   4.947
   68        1.580   3.374   0.000   4.954
   69        1.547   3.556   0.000   5.103
   70        0.604   0.119   0.000   0.723
--------------------------------------------------
tot         38.568  47.499 398.786 484.854
 


 magnetization (x)
 
# of ion       s       p       d       tot
------------------------------------------
    1       -0.006  -0.014   2.670   2.651
    2       -0.016  -0.053   2.432   2.364
    3       -0.015  -0.055   2.471   2.401
    4       -0.004  -0.019   2.247   2.224
    5       -0.003  -0.015   2.691   2.673
    6       -0.017  -0.057   2.505   2.431
    7       -0.016  -0.059   2.431   2.356
    8       -0.001  -0.011   2.299   2.287
    9       -0.005  -0.014   2.678   2.658
   10       -0.013  -0.053   2.470   2.404
   11       -0.015  -0.056   2.493   2.421
   12       -0.006  -0.022   2.102   2.074
   13       -0.005  -0.016   2.694   2.673
   14       -0.015  -0.055   2.430   2.360
   15       -0.016  -0.060   2.420   2.344
   16        0.001  -0.010   2.244   2.235
   17       -0.005  -0.014   2.665   2.645
   18       -0.010  -0.056   2.305   2.239
   19       -0.016  -0.059   2.431   2.356
   20       -0.001  -0.011   2.300   2.288
   21       -0.005  -0.014   2.678   2.658
   22       -0.013  -0.053   2.469   2.403
   23       -0.015  -0.057   2.463   2.391
   24       -0.007  -0.007   2.857   2.843
   25       -0.005  -0.014   2.666   2.646
   26       -0.010  -0.056   2.376   2.310
   27       -0.017  -0.059   2.450   2.374
   28       -0.004  -0.010   2.204   2.190
   29       -0.005  -0.014   2.681   2.661
   30       -0.015  -0.053   2.415   2.347
   31       -0.015  -0.056   2.468   2.397
   32       -0.005  -0.013   2.753   2.736
   33       -0.005  -0.013   2.681   2.664
   34       -0.015  -0.053   2.431   2.362
   35       -0.015  -0.056   2.492   2.421
   36       -0.006  -0.022   2.094   2.066
   37       -0.005  -0.016   2.694   2.673
   38       -0.015  -0.055   2.430   2.360
   39       -0.017  -0.059   2.450   2.374
   40       -0.004  -0.010   2.204   2.190
   41       -0.005  -0.014   2.681   2.661
   42       -0.015  -0.053   2.415   2.347
   43       -0.015  -0.056   2.481   2.410
   44       -0.005  -0.019   2.442   2.419
   45       -0.003  -0.014   2.697   2.681
   46       -0.016  -0.057   2.493   2.420
   47       -0.017  -0.059   2.432   2.357
   48       -0.001  -0.014   2.232   2.218
   49       -0.004  -0.014   2.686   2.668
   50       -0.010  -0.056   2.288   2.222
   51       -0.016  -0.060   2.420   2.343
   52        0.001  -0.010   2.243   2.234
   53       -0.006  -0.014   2.670   2.651
   54       -0.016  -0.053   2.432   2.363
   55       -0.015  -0.056   2.467   2.396
   56       -0.005  -0.013   2.753   2.735
   57       -0.006  -0.014   2.665   2.645
   58       -0.010  -0.056   2.304   2.239
   59       -0.017  -0.059   2.432   2.357
   60       -0.001  -0.014   2.232   2.217
   61       -0.005  -0.013   2.681   2.663
   62       -0.015  -0.053   2.431   2.363
   63       -0.015  -0.055   2.469   2.399
   64       -0.005  -0.010   2.780   2.765
   65        0.003   0.032   0.000   0.035
   66        0.002   0.001   0.000   0.003
   67        0.003   0.028   0.000   0.031
   68        0.002   0.000   0.000   0.003
   69        0.010   0.060   0.000   0.070
   70        0.006   0.001   0.000   0.007
--------------------------------------------------
tot         -0.580  -2.111 158.759 156.068
 
 BZINTS: Fermi energy: -0.492375;543.000000 electrons
         Band energy:***********;  BLOECHL correction: -0.022601

 total amount of memory used by VASP MPI-rank0   111404. kBytes
=======================================================================

   base      :      30000. kBytes
   nonlr-proj:      13673. kBytes
   fftplans  :       6401. kBytes
   grid      :      17692. kBytes
   one-center:         93. kBytes
   wavefun   :      43545. kBytes
 
  
  
 General timing and accounting informations for this job:
 ========================================================
  
                  Total CPU time used (sec):     1265.467
                            User time (sec):     1093.299
                          System time (sec):      172.168
                         Elapsed time (sec):     1306.863
  
                   Maximum memory used (kb):      346424.
                   Average memory used (kb):           0.
  
                          Minor page faults:     19933707
                          Major page faults:            2
                 Voluntary context switches:         4604
