SQS-NiFe                                
           1
     9.929500    0.000000    0.000000
     3.309833    9.361622    0.000000
     0.000000    0.000000   21.080550
   Fe   O    H 
  64   5   1
Direct configuration=     1
   0.08738900  0.16261100  0.09487400
   0.08805884  0.16049282  0.28495458
   0.21238900  0.03761100  0.19102200
   0.20550250  0.03060065  0.38064930
   0.33738900  0.16261100  0.09487400
   0.33754578  0.16268706  0.28467204
   0.46238900  0.03761100  0.19102200
   0.45954980  0.03561460  0.37950043
   0.58738900  0.16261100  0.09487400
   0.58751132  0.16226095  0.28553925
   0.71238900  0.03761100  0.19102200
   0.70681724  0.02885685  0.37876288
   0.83738900  0.16261100  0.09487400
   0.83769503  0.16274011  0.28491391
   0.96238900  0.03761100  0.19102200
   0.96134394  0.03270494  0.37967715
   0.08738900  0.41261100  0.09487400
   0.08846056  0.41168515  0.28530289
   0.21238900  0.28761100  0.19102200
   0.21057924  0.28466899  0.37951384
   0.33738900  0.41261100  0.09487400
   0.33711586  0.41268584  0.28551574
   0.46238900  0.28761100  0.19102200
   0.46049547  0.28564506  0.37812983
   0.58738900  0.41261100  0.09487400
   0.58798973  0.41317008  0.28670458
   0.71238900  0.28761100  0.19102200
   0.71708436  0.28288061  0.38065218
   0.83738900  0.41261100  0.09487400
   0.83676164  0.41300368  0.28483031
   0.96238900  0.28761100  0.19102200
   0.96367142  0.28764929  0.37480337
   0.08738900  0.66261100  0.09487400
   0.08750377  0.66157853  0.28483756
   0.21238900  0.53761100  0.19102200
   0.20368742  0.53198899  0.37873425
   0.33738900  0.66261100  0.09487400
   0.33753499  0.66285990  0.28489954
   0.46238900  0.53761100  0.19102200
   0.45763497  0.54218200  0.38064876
   0.58738900  0.66261100  0.09487400
   0.58776916  0.66193334  0.28483757
   0.71238900  0.53761100  0.19102200
   0.71019760  0.53551084  0.37922161
   0.83738900  0.66261100  0.09487400
   0.83734244  0.66253132  0.28418788
   0.96238900  0.53761100  0.19102200
   0.96275266  0.53316955  0.37858987
   0.08738900  0.91261100  0.09487400
   0.08718012  0.91235703  0.28566941
   0.21238900  0.78761100  0.19102200
   0.20756590  0.78640325  0.37968916
   0.33738900  0.91261100  0.09487400
   0.33531053  0.91319953  0.28494538
   0.46238900  0.78761100  0.19102200
   0.46233907  0.78877575  0.37482257
   0.58738900  0.91261100  0.09487400
   0.58648881  0.91357395  0.28530451
   0.71238900  0.78761100  0.19102200
   0.70789775  0.78797453  0.37857899
   0.83738900  0.91261100  0.09487400
   0.83637920  0.91270470  0.28484979
   0.96238900  0.78761100  0.19102200
   0.96177516  0.78700676  0.37600978
   0.30155315  0.12662157  0.43106699
   0.80350096  0.11771554  0.43096382
   0.81018516  0.63542923  0.42999392
   0.29238031  0.62848274  0.43093983
   0.55405192  0.37916208  0.44218286
   0.55026937  0.37515852  0.48832369
