  71  71   1   0
  0.2644711E+02  0.1010031E-08  0.1010031E-08  0.2125380E-08  0.1500000E-16
  1.000000000000000E-004
  CAR 
 SQS-NiFe                                
      3.64008152    -25.05163391  301     -0.07439238      1.00000000
    -25.052  0.0000E+00  0.0000E+00
    -24.956  0.0000E+00  0.0000E+00
    -24.860  0.0000E+00  0.0000E+00
    -24.765  0.0000E+00  0.0000E+00
    -24.669  0.0000E+00  0.0000E+00
    -24.573  0.0000E+00  0.0000E+00
    -24.478  0.0000E+00  0.0000E+00
    -24.382  0.0000E+00  0.0000E+00
    -24.287  0.0000E+00  0.0000E+00
    -24.191  0.9141E-17  0.8742E-18
    -24.095  0.1861E-14  0.1788E-15
    -24.000  0.2380E-12  0.2294E-13
    -23.904  0.1942E-10  0.1880E-11
    -23.808  0.1011E-08  0.9860E-10
    -23.713  0.3365E-07  0.3317E-08
    -23.617  0.7164E-06  0.7183E-07
    -23.521  0.9768E-05  0.1006E-05
    -23.426  0.8541E-04  0.9174E-05
    -23.330  0.4795E-03  0.5503E-04
    -23.234  0.1730E-02  0.2205E-03
    -23.139  0.4015E-02  0.6045E-03
    -23.043  0.5999E-02  0.1178E-02
    -22.948  0.5771E-02  0.1730E-02
    -22.852  0.3575E-02  0.2072E-02
    -22.756  0.1425E-02  0.2208E-02
    -22.661  0.3654E-03  0.2243E-02
    -22.565  0.6021E-04  0.2249E-02
    -22.469  0.6368E-05  0.2250E-02
    -22.374  0.4319E-06  0.2250E-02
    -22.278  0.1875E-07  0.2250E-02
    -22.182  0.5209E-09  0.2250E-02
    -22.087  0.9242E-11  0.2250E-02
    -21.991  0.1047E-12  0.2250E-02
    -21.896  0.7521E-15  0.2250E-02
    -21.800  0.5223E-17  0.2250E-02
    -21.704  0.0000E+00  0.2250E-02
    -21.609  0.0000E+00  0.2250E-02
    -21.513  0.0000E+00  0.2250E-02
    -21.417  0.0000E+00  0.2250E-02
    -21.322  0.0000E+00  0.2250E-02
    -21.226  0.0000E+00  0.2250E-02
    -21.130  0.0000E+00  0.2250E-02
    -21.035  0.0000E+00  0.2250E-02
    -20.939  0.0000E+00  0.2250E-02
    -20.844  0.0000E+00  0.2250E-02
    -20.748  0.0000E+00  0.2250E-02
    -20.652  0.0000E+00  0.2250E-02
    -20.557  0.0000E+00  0.2250E-02
    -20.461  0.0000E+00  0.2250E-02
    -20.365  0.3917E-17  0.2250E-02
    -20.270  0.8618E-15  0.2250E-02
    -20.174  0.1215E-12  0.2250E-02
    -20.078  0.1100E-10  0.2250E-02
    -19.983  0.6400E-09  0.2250E-02
    -19.887  0.2404E-07  0.2250E-02
    -19.791  0.5850E-06  0.2250E-02
    -19.696  0.9263E-05  0.2251E-02
    -19.600  0.9588E-04  0.2260E-02
    -19.505  0.6523E-03  0.2322E-02
    -19.409  0.2933E-02  0.2603E-02
    -19.313  0.8767E-02  0.3441E-02
    -19.218  0.1750E-01  0.5115E-02
    -19.122  0.2343E-01  0.7356E-02
    -19.026  0.2108E-01  0.9372E-02
    -18.931  0.1275E-01  0.1059E-01
    -18.835  0.5176E-02  0.1109E-01
    -18.739  0.1404E-02  0.1122E-01
    -18.644  0.2533E-03  0.1125E-01
    -18.548  0.3020E-04  0.1125E-01
    -18.453  0.2364E-05  0.1125E-01
    -18.357  0.1209E-06  0.1125E-01
    -18.261  0.4017E-08  0.1125E-01
    -18.166  0.8643E-10  0.1125E-01
    -18.070  0.1016E-10  0.1125E-01
    -17.974  0.5068E-09  0.1125E-01
    -17.879  0.1831E-07  0.1125E-01
    -17.783  0.4229E-06  0.1125E-01
    -17.687  0.6256E-05  0.1125E-01
    -17.592  0.5934E-04  0.1125E-01
    -17.496  0.3613E-03  0.1129E-01
    -17.401  0.1413E-02  0.1142E-01
    -17.305  0.3557E-02  0.1176E-01
    -17.209  0.5760E-02  0.1232E-01
    -17.114  0.6007E-02  0.1289E-01
    -17.018  0.4033E-02  0.1328E-01
    -16.922  0.1743E-02  0.1344E-01
    -16.827  0.4847E-03  0.1349E-01
    -16.731  0.8661E-04  0.1350E-01
    -16.635  0.9937E-05  0.1350E-01
    -16.540  0.7311E-06  0.1350E-01
    -16.444  0.3445E-07  0.1350E-01
    -16.348  0.1039E-08  0.1350E-01
    -16.253  0.2001E-10  0.1350E-01
    -16.157  0.2460E-12  0.1350E-01
    -16.062  0.1927E-14  0.1350E-01
    -15.966  0.1045E-16  0.1350E-01
    -15.870  0.0000E+00  0.1350E-01
    -15.775  0.0000E+00  0.1350E-01
    -15.679  0.0000E+00  0.1350E-01
    -15.583  0.0000E+00  0.1350E-01
    -15.488  0.0000E+00  0.1350E-01
    -15.392  0.0000E+00  0.1350E-01
    -15.296  0.0000E+00  0.1350E-01
    -15.201  0.0000E+00  0.1350E-01
    -15.105  0.0000E+00  0.1350E-01
    -15.010  0.0000E+00  0.1350E-01
    -14.914  0.0000E+00  0.1350E-01
    -14.818  0.0000E+00  0.1350E-01
    -14.723  0.0000E+00  0.1350E-01
    -14.627  0.0000E+00  0.1350E-01
    -14.531  0.0000E+00  0.1350E-01
    -14.436  0.0000E+00  0.1350E-01
    -14.340  0.0000E+00  0.1350E-01
    -14.244  0.0000E+00  0.1350E-01
    -14.149  0.0000E+00  0.1350E-01
    -14.053  0.0000E+00  0.1350E-01
    -13.958  0.0000E+00  0.1350E-01
    -13.862  0.0000E+00  0.1350E-01
    -13.766  0.0000E+00  0.1350E-01
    -13.671  0.0000E+00  0.1350E-01
    -13.575  0.0000E+00  0.1350E-01
    -13.479  0.0000E+00  0.1350E-01
    -13.384  0.0000E+00  0.1350E-01
    -13.288  0.0000E+00  0.1350E-01
    -13.192  0.0000E+00  0.1350E-01
    -13.097  0.0000E+00  0.1350E-01
    -13.001  0.0000E+00  0.1350E-01
    -12.905  0.0000E+00  0.1350E-01
    -12.810  0.0000E+00  0.1350E-01
    -12.714  0.0000E+00  0.1350E-01
    -12.619  0.0000E+00  0.1350E-01
    -12.523  0.0000E+00  0.1350E-01
    -12.427  0.0000E+00  0.1350E-01
    -12.332  0.0000E+00  0.1350E-01
    -12.236  0.0000E+00  0.1350E-01
    -12.140  0.0000E+00  0.1350E-01
    -12.045  0.0000E+00  0.1350E-01
    -11.949  0.0000E+00  0.1350E-01
    -11.853  0.0000E+00  0.1350E-01
    -11.758  0.0000E+00  0.1350E-01
    -11.662  0.0000E+00  0.1350E-01
    -11.567  0.0000E+00  0.1350E-01
    -11.471  0.0000E+00  0.1350E-01
    -11.375  0.0000E+00  0.1350E-01
    -11.280  0.0000E+00  0.1350E-01
    -11.184  0.0000E+00  0.1350E-01
    -11.088  0.0000E+00  0.1350E-01
    -10.993  0.0000E+00  0.1350E-01
    -10.897  0.0000E+00  0.1350E-01
    -10.801  0.0000E+00  0.1350E-01
    -10.706  0.0000E+00  0.1350E-01
    -10.610  0.0000E+00  0.1350E-01
    -10.514  0.0000E+00  0.1350E-01
    -10.419  0.0000E+00  0.1350E-01
    -10.323  0.0000E+00  0.1350E-01
    -10.228  0.0000E+00  0.1350E-01
    -10.132  0.0000E+00  0.1350E-01
    -10.036  0.0000E+00  0.1350E-01
     -9.941  0.0000E+00  0.1350E-01
     -9.845  0.0000E+00  0.1350E-01
     -9.749  0.0000E+00  0.1350E-01
     -9.654  0.1306E-17  0.1350E-01
     -9.558  0.4414E-15  0.1350E-01
     -9.462  0.6399E-13  0.1350E-01
     -9.367  0.5921E-11  0.1350E-01
     -9.271  0.3496E-09  0.1350E-01
     -9.176  0.1319E-07  0.1350E-01
     -9.080  0.3182E-06  0.1350E-01
     -8.984  0.4915E-05  0.1350E-01
     -8.889  0.4868E-04  0.1350E-01
     -8.793  0.3098E-03  0.1353E-01
     -8.697  0.1270E-02  0.1365E-01
     -8.602  0.3387E-02  0.1398E-01
     -8.506  0.6020E-02  0.1455E-01
     -8.410  0.7661E-02  0.1529E-01
     -8.315  0.8053E-02  0.1606E-01
     -8.219  0.7813E-02  0.1680E-01
     -8.124  0.6462E-02  0.1742E-01
     -8.028  0.3915E-02  0.1780E-01
     -7.932  0.1596E-02  0.1795E-01
     -7.837  0.4244E-03  0.1799E-01
     -7.741  0.7286E-04  0.1800E-01
     -7.645  0.9160E-05  0.1800E-01
     -7.550  0.1494E-04  0.1800E-01
     -7.454  0.1169E-03  0.1801E-01
     -7.358  0.6112E-03  0.1807E-01
     -7.263  0.2062E-02  0.1827E-01
     -7.167  0.4536E-02  0.1870E-01
     -7.071  0.6756E-02  0.1935E-01
     -6.976  0.7612E-02  0.2007E-01
     -6.880  0.8095E-02  0.2085E-01
     -6.785  0.9570E-02  0.2176E-01
     -6.689  0.1239E-01  0.2295E-01
     -6.593  0.1687E-01  0.2456E-01
     -6.498  0.2241E-01  0.2671E-01
     -6.402  0.2722E-01  0.2931E-01
     -6.306  0.2927E-01  0.3211E-01
     -6.211  0.2668E-01  0.3466E-01
     -6.115  0.2040E-01  0.3661E-01
     -6.019  0.1512E-01  0.3806E-01
     -5.924  0.1528E-01  0.3952E-01
     -5.828  0.2119E-01  0.4154E-01
     -5.733  0.2989E-01  0.4440E-01
     -5.637  0.3864E-01  0.4810E-01
     -5.541  0.4460E-01  0.5236E-01
     -5.446  0.4397E-01  0.5657E-01
     -5.350  0.3615E-01  0.6003E-01
     -5.254  0.2551E-01  0.6247E-01
     -5.159  0.1786E-01  0.6418E-01
     -5.063  0.1691E-01  0.6579E-01
     -4.967  0.2328E-01  0.6802E-01
     -4.872  0.3280E-01  0.7116E-01
     -4.776  0.3737E-01  0.7473E-01
     -4.681  0.3287E-01  0.7787E-01
     -4.585  0.2390E-01  0.8016E-01
     -4.489  0.1875E-01  0.8195E-01
     -4.394  0.2236E-01  0.8409E-01
     -4.298  0.3300E-01  0.8725E-01
     -4.202  0.4232E-01  0.9129E-01
     -4.107  0.4494E-01  0.9559E-01
     -4.011  0.4861E-01  0.1002E+00
     -3.915  0.6297E-01  0.1063E+00
     -3.820  0.8561E-01  0.1145E+00
     -3.724  0.1094E+00  0.1249E+00
     -3.628  0.1302E+00  0.1374E+00
     -3.533  0.1415E+00  0.1509E+00
     -3.437  0.1352E+00  0.1638E+00
     -3.342  0.1140E+00  0.1747E+00
     -3.246  0.9565E-01  0.1839E+00
     -3.150  0.9706E-01  0.1932E+00
     -3.055  0.1139E+00  0.2041E+00
     -2.959  0.1256E+00  0.2161E+00
     -2.863  0.1226E+00  0.2278E+00
     -2.768  0.1170E+00  0.2390E+00
     -2.672  0.1221E+00  0.2507E+00
     -2.576  0.1350E+00  0.2636E+00
     -2.481  0.1433E+00  0.2773E+00
     -2.385  0.1438E+00  0.2910E+00
     -2.290  0.1436E+00  0.3048E+00
     -2.194  0.1471E+00  0.3188E+00
     -2.098  0.1518E+00  0.3334E+00
     -2.003  0.1587E+00  0.3485E+00
     -1.907  0.1731E+00  0.3651E+00
     -1.811  0.1932E+00  0.3836E+00
     -1.716  0.2102E+00  0.4037E+00
     -1.620  0.2185E+00  0.4246E+00
     -1.524  0.2168E+00  0.4453E+00
     -1.429  0.2039E+00  0.4648E+00
     -1.333  0.1833E+00  0.4823E+00
     -1.238  0.1636E+00  0.4980E+00
     -1.142  0.1518E+00  0.5125E+00
     -1.046  0.1503E+00  0.5269E+00
     -0.951  0.1567E+00  0.5419E+00
     -0.855  0.1656E+00  0.5577E+00
     -0.759  0.1721E+00  0.5741E+00
     -0.664  0.1756E+00  0.5909E+00
     -0.568  0.1770E+00  0.6079E+00
     -0.472  0.1756E+00  0.6247E+00
     -0.377  0.1717E+00  0.6411E+00
     -0.281  0.1680E+00  0.6572E+00
     -0.185  0.1672E+00  0.6731E+00
     -0.090  0.1679E+00  0.6892E+00
      0.006  0.1657E+00  0.7051E+00
      0.101  0.1587E+00  0.7202E+00
      0.197  0.1515E+00  0.7347E+00
      0.293  0.1476E+00  0.7488E+00
      0.388  0.1440E+00  0.7626E+00
      0.484  0.1352E+00  0.7756E+00
      0.580  0.1181E+00  0.7868E+00
      0.675  0.9392E-01  0.7958E+00
      0.771  0.6870E-01  0.8024E+00
      0.867  0.4945E-01  0.8071E+00
      0.962  0.3893E-01  0.8109E+00
      1.058  0.3519E-01  0.8142E+00
      1.153  0.3408E-01  0.8175E+00
      1.249  0.3199E-01  0.8205E+00
      1.345  0.2783E-01  0.8232E+00
      1.440  0.2281E-01  0.8254E+00
      1.536  0.1831E-01  0.8271E+00
      1.632  0.1417E-01  0.8285E+00
      1.727  0.9638E-02  0.8294E+00
      1.823  0.5130E-02  0.8299E+00
      1.919  0.1962E-02  0.8301E+00
      2.014  0.5113E-03  0.8301E+00
      2.110  0.8825E-04  0.8301E+00
      2.205  0.9933E-05  0.8301E+00
      2.301  0.7225E-06  0.8301E+00
      2.397  0.3380E-07  0.8301E+00
      2.492  0.1014E-08  0.8301E+00
      2.588  0.1944E-10  0.8301E+00
      2.684  0.2381E-12  0.8301E+00
      2.779  0.1859E-14  0.8301E+00
      2.875  0.1045E-16  0.8301E+00
      2.971  0.0000E+00  0.8301E+00
      3.066  0.0000E+00  0.8301E+00
      3.162  0.0000E+00  0.8301E+00
      3.258  0.0000E+00  0.8301E+00
      3.353  0.0000E+00  0.8301E+00
      3.449  0.0000E+00  0.8301E+00
      3.544  0.0000E+00  0.8301E+00
      3.640  0.0000E+00  0.8301E+00
      3.64008152    -25.05163391  301     -0.07439238      1.00000000
    -25.052  0.0000E+00  0.0000E+00  0.0000E+00
    -24.956  0.0000E+00  0.0000E+00  0.0000E+00
    -24.860  0.0000E+00  0.0000E+00  0.0000E+00
    -24.765  0.0000E+00  0.0000E+00  0.0000E+00
    -24.669  0.0000E+00  0.0000E+00  0.0000E+00
    -24.573  0.0000E+00  0.0000E+00  0.0000E+00
    -24.478  0.0000E+00  0.0000E+00  0.0000E+00
    -24.382  0.0000E+00  0.0000E+00  0.0000E+00
    -24.287  0.0000E+00  0.0000E+00  0.0000E+00
    -24.191  0.1182E-23  0.1505E-23  0.7348E-24
    -24.095  0.2407E-21  0.3064E-21  0.1496E-21
    -24.000  0.3079E-19  0.3919E-19  0.1913E-19
    -23.904  0.2512E-17  0.3197E-17  0.1561E-17
    -23.808  0.1308E-15  0.1665E-15  0.8129E-16
    -23.713  0.4353E-14  0.5541E-14  0.2705E-14
    -23.617  0.9267E-13  0.1180E-12  0.5759E-13
    -23.521  0.1264E-11  0.1608E-11  0.7852E-12
    -23.426  0.1105E-10  0.1406E-10  0.6866E-11
    -23.330  0.6202E-10  0.7895E-10  0.3854E-10
    -23.234  0.2238E-09  0.2849E-09  0.1391E-09
    -23.139  0.5194E-09  0.6612E-09  0.3228E-09
    -23.043  0.7760E-09  0.9878E-09  0.4823E-09
    -22.948  0.7465E-09  0.9502E-09  0.4639E-09
    -22.852  0.4624E-09  0.5886E-09  0.2874E-09
    -22.756  0.1843E-09  0.2346E-09  0.1146E-09
    -22.661  0.4727E-10  0.6017E-10  0.2937E-10
    -22.565  0.7788E-11  0.9914E-11  0.4840E-11
    -22.469  0.8238E-12  0.1049E-11  0.5119E-12
    -22.374  0.5586E-13  0.7111E-13  0.3472E-13
    -22.278  0.2426E-14  0.3088E-14  0.1508E-14
    -22.182  0.6737E-16  0.8576E-16  0.4187E-16
    -22.087  0.1196E-17  0.1522E-17  0.7430E-18
    -21.991  0.1354E-19  0.1723E-19  0.8414E-20
    -21.896  0.9729E-22  0.1238E-21  0.6046E-22
    -21.800  0.6756E-24  0.8600E-24  0.4199E-24
    -21.704  0.0000E+00  0.0000E+00  0.0000E+00
    -21.609  0.0000E+00  0.0000E+00  0.0000E+00
    -21.513  0.0000E+00  0.0000E+00  0.0000E+00
    -21.417  0.0000E+00  0.0000E+00  0.0000E+00
    -21.322  0.0000E+00  0.0000E+00  0.0000E+00
    -21.226  0.0000E+00  0.0000E+00  0.0000E+00
    -21.130  0.0000E+00  0.0000E+00  0.0000E+00
    -21.035  0.0000E+00  0.0000E+00  0.0000E+00
    -20.939  0.0000E+00  0.0000E+00  0.0000E+00
    -20.844  0.0000E+00  0.0000E+00  0.0000E+00
    -20.748  0.0000E+00  0.0000E+00  0.0000E+00
    -20.652  0.0000E+00  0.0000E+00  0.0000E+00
    -20.557  0.0000E+00  0.0000E+00  0.0000E+00
    -20.461  0.0000E+00  0.0000E+00  0.0000E+00
    -20.365  0.1034E-21  0.6484E-22  0.1342E-22
    -20.270  0.2104E-19  0.1319E-19  0.2729E-20
    -20.174  0.2901E-17  0.1818E-17  0.3763E-18
    -20.078  0.2551E-15  0.1598E-15  0.3308E-16
    -19.983  0.1431E-13  0.8967E-14  0.1856E-14
    -19.887  0.5132E-12  0.3215E-12  0.6653E-13
    -19.791  0.1177E-10  0.7372E-11  0.1526E-11
    -19.696  0.1729E-09  0.1083E-09  0.2241E-10
    -19.600  0.1629E-08  0.1020E-08  0.2110E-09
    -19.505  0.9859E-08  0.6166E-08  0.1276E-08
    -19.409  0.3836E-07  0.2397E-07  0.4960E-08
    -19.313  0.9609E-07  0.5997E-07  0.1241E-07
    -19.218  0.1551E-06  0.9665E-07  0.1999E-07
    -19.122  0.1617E-06  0.1004E-06  0.2077E-07
    -19.026  0.1089E-06  0.6732E-07  0.1393E-07
    -18.931  0.4745E-07  0.2914E-07  0.6031E-08
    -18.835  0.1343E-07  0.8153E-08  0.1689E-08
    -18.739  0.2477E-08  0.1478E-08  0.3069E-09
    -18.644  0.3003E-09  0.1741E-09  0.3633E-10
    -18.548  0.2418E-10  0.1342E-10  0.2824E-11
    -18.453  0.1311E-11  0.6827E-12  0.1458E-12
    -18.357  0.4863E-13  0.2323E-13  0.5079E-14
    -18.261  0.1246E-14  0.5367E-15  0.1212E-15
    -18.166  0.2243E-16  0.8917E-17  0.2251E-17
    -18.070  0.3417E-16  0.3512E-16  0.2219E-16
    -17.974  0.1917E-14  0.1980E-14  0.1253E-14
    -17.879  0.6924E-13  0.7153E-13  0.4527E-13
    -17.783  0.1600E-11  0.1653E-11  0.1046E-11
    -17.687  0.2366E-10  0.2445E-10  0.1547E-10
    -17.592  0.2244E-09  0.2319E-09  0.1467E-09
    -17.496  0.1366E-08  0.1412E-08  0.8933E-09
    -17.401  0.5346E-08  0.5523E-08  0.3495E-08
    -17.305  0.1345E-07  0.1390E-07  0.8795E-08
    -17.209  0.2179E-07  0.2251E-07  0.1424E-07
    -17.114  0.2272E-07  0.2347E-07  0.1485E-07
    -17.018  0.1525E-07  0.1576E-07  0.9973E-08
    -16.922  0.6593E-08  0.6811E-08  0.4310E-08
    -16.827  0.1833E-08  0.1894E-08  0.1198E-08
    -16.731  0.3276E-09  0.3384E-09  0.2142E-09
    -16.635  0.3758E-10  0.3883E-10  0.2457E-10
    -16.540  0.2765E-11  0.2857E-11  0.1808E-11
    -16.444  0.1303E-12  0.1346E-12  0.8519E-13
    -16.348  0.3928E-14  0.4058E-14  0.2568E-14
    -16.253  0.7568E-16  0.7818E-16  0.4948E-16
    -16.157  0.9306E-18  0.9614E-18  0.6084E-18
    -16.062  0.7290E-20  0.7531E-20  0.4766E-20
    -15.966  0.3951E-22  0.4082E-22  0.2583E-22
    -15.870  0.0000E+00  0.0000E+00  0.0000E+00
    -15.775  0.0000E+00  0.0000E+00  0.0000E+00
    -15.679  0.0000E+00  0.0000E+00  0.0000E+00
    -15.583  0.0000E+00  0.0000E+00  0.0000E+00
    -15.488  0.0000E+00  0.0000E+00  0.0000E+00
    -15.392  0.0000E+00  0.0000E+00  0.0000E+00
    -15.296  0.0000E+00  0.0000E+00  0.0000E+00
    -15.201  0.0000E+00  0.0000E+00  0.0000E+00
    -15.105  0.0000E+00  0.0000E+00  0.0000E+00
    -15.010  0.0000E+00  0.0000E+00  0.0000E+00
    -14.914  0.0000E+00  0.0000E+00  0.0000E+00
    -14.818  0.0000E+00  0.0000E+00  0.0000E+00
    -14.723  0.0000E+00  0.0000E+00  0.0000E+00
    -14.627  0.0000E+00  0.0000E+00  0.0000E+00
    -14.531  0.0000E+00  0.0000E+00  0.0000E+00
    -14.436  0.0000E+00  0.0000E+00  0.0000E+00
    -14.340  0.0000E+00  0.0000E+00  0.0000E+00
    -14.244  0.0000E+00  0.0000E+00  0.0000E+00
    -14.149  0.0000E+00  0.0000E+00  0.0000E+00
    -14.053  0.0000E+00  0.0000E+00  0.0000E+00
    -13.958  0.0000E+00  0.0000E+00  0.0000E+00
    -13.862  0.0000E+00  0.0000E+00  0.0000E+00
    -13.766  0.0000E+00  0.0000E+00  0.0000E+00
    -13.671  0.0000E+00  0.0000E+00  0.0000E+00
    -13.575  0.0000E+00  0.0000E+00  0.0000E+00
    -13.479  0.0000E+00  0.0000E+00  0.0000E+00
    -13.384  0.0000E+00  0.0000E+00  0.0000E+00
    -13.288  0.0000E+00  0.0000E+00  0.0000E+00
    -13.192  0.0000E+00  0.0000E+00  0.0000E+00
    -13.097  0.0000E+00  0.0000E+00  0.0000E+00
    -13.001  0.0000E+00  0.0000E+00  0.0000E+00
    -12.905  0.0000E+00  0.0000E+00  0.0000E+00
    -12.810  0.0000E+00  0.0000E+00  0.0000E+00
    -12.714  0.0000E+00  0.0000E+00  0.0000E+00
    -12.619  0.0000E+00  0.0000E+00  0.0000E+00
    -12.523  0.0000E+00  0.0000E+00  0.0000E+00
    -12.427  0.0000E+00  0.0000E+00  0.0000E+00
    -12.332  0.0000E+00  0.0000E+00  0.0000E+00
    -12.236  0.0000E+00  0.0000E+00  0.0000E+00
    -12.140  0.0000E+00  0.0000E+00  0.0000E+00
    -12.045  0.0000E+00  0.0000E+00  0.0000E+00
    -11.949  0.0000E+00  0.0000E+00  0.0000E+00
    -11.853  0.0000E+00  0.0000E+00  0.0000E+00
    -11.758  0.0000E+00  0.0000E+00  0.0000E+00
    -11.662  0.0000E+00  0.0000E+00  0.0000E+00
    -11.567  0.0000E+00  0.0000E+00  0.0000E+00
    -11.471  0.0000E+00  0.0000E+00  0.0000E+00
    -11.375  0.0000E+00  0.0000E+00  0.0000E+00
    -11.280  0.0000E+00  0.0000E+00  0.0000E+00
    -11.184  0.0000E+00  0.0000E+00  0.0000E+00
    -11.088  0.0000E+00  0.0000E+00  0.0000E+00
    -10.993  0.0000E+00  0.0000E+00  0.0000E+00
    -10.897  0.0000E+00  0.0000E+00  0.0000E+00
    -10.801  0.0000E+00  0.0000E+00  0.0000E+00
    -10.706  0.0000E+00  0.0000E+00  0.0000E+00
    -10.610  0.0000E+00  0.0000E+00  0.0000E+00
    -10.514  0.0000E+00  0.0000E+00  0.0000E+00
    -10.419  0.0000E+00  0.0000E+00  0.0000E+00
    -10.323  0.0000E+00  0.0000E+00  0.0000E+00
    -10.228  0.0000E+00  0.0000E+00  0.0000E+00
    -10.132  0.0000E+00  0.0000E+00  0.0000E+00
    -10.036  0.0000E+00  0.0000E+00  0.0000E+00
     -9.941  0.0000E+00  0.0000E+00  0.0000E+00
     -9.845  0.0000E+00  0.0000E+00  0.0000E+00
     -9.749  0.0000E+00  0.0000E+00  0.0000E+00
     -9.654  0.1105E-23  0.1109E-20  0.9062E-21
     -9.558  0.3735E-21  0.3747E-18  0.3063E-18
     -9.462  0.5414E-19  0.5432E-16  0.4441E-16
     -9.367  0.8962E-16  0.5027E-14  0.4109E-14
     -9.271  0.1891E-13  0.2969E-12  0.2427E-12
     -9.176  0.2497E-11  0.1121E-10  0.9165E-11
     -9.080  0.2119E-09  0.2714E-09  0.2218E-09
     -8.984  0.1150E-07  0.4243E-08  0.3466E-08
     -8.889  0.3991E-06  0.4378E-07  0.3570E-07
     -8.793  0.8861E-05  0.3175E-06  0.2574E-06
     -8.697  0.1260E-03  0.1854E-05  0.1486E-05
     -8.602  0.1149E-02  0.9950E-05  0.7859E-05
     -8.506  0.6725E-02  0.4652E-04  0.3642E-04
     -8.410  0.2530E-01  0.1623E-03  0.1266E-03
     -8.315  0.6121E-01  0.3838E-03  0.2991E-03
     -8.219  0.9534E-01  0.5937E-03  0.4625E-03
     -8.124  0.9561E-01  0.5942E-03  0.4629E-03
     -8.028  0.6173E-01  0.3835E-03  0.2987E-03
     -7.932  0.2566E-01  0.1594E-03  0.1241E-03
     -7.837  0.6859E-02  0.4260E-04  0.3318E-04
     -7.741  0.1179E-02  0.7338E-05  0.5710E-05
     -7.645  0.1328E-03  0.1190E-05  0.8108E-06
     -7.550  0.4465E-04  0.4910E-05  0.2352E-05
     -7.454  0.2890E-03  0.3949E-04  0.1877E-04
     -7.358  0.1512E-02  0.2069E-03  0.9818E-04
     -7.263  0.5147E-02  0.7042E-03  0.3321E-03
     -7.167  0.1170E-01  0.1600E-02  0.7386E-03
     -7.071  0.1937E-01  0.2653E-02  0.1142E-02
     -6.976  0.2789E-01  0.3929E-02  0.1435E-02
     -6.880  0.3957E-01  0.6355E-02  0.1880E-02
     -6.785  0.5024E-01  0.1116E-01  0.2847E-02
     -6.689  0.5368E-01  0.1945E-01  0.4637E-02
     -6.593  0.6435E-01  0.3007E-01  0.7542E-02
     -6.498  0.1220E+00  0.3746E-01  0.1193E-01
     -6.402  0.2485E+00  0.3826E-01  0.1810E-01
     -6.306  0.3748E+00  0.3747E-01  0.2376E-01
     -6.211  0.3784E+00  0.4029E-01  0.2355E-01
     -6.115  0.2525E+00  0.4402E-01  0.1663E-01
     -6.019  0.1177E+00  0.4498E-01  0.9243E-02
     -5.924  0.5577E-01  0.4636E-01  0.6480E-02
     -5.828  0.5548E-01  0.4901E-01  0.7580E-02
     -5.733  0.7609E-01  0.4601E-01  0.9658E-02
     -5.637  0.9321E-01  0.3617E-01  0.1216E-01
     -5.541  0.1034E+00  0.2643E-01  0.1586E-01
     -5.446  0.1080E+00  0.2020E-01  0.1883E-01
     -5.350  0.1011E+00  0.1581E-01  0.1787E-01
     -5.254  0.7769E-01  0.1192E-01  0.1450E-01
     -5.159  0.4705E-01  0.9382E-02  0.1699E-01
     -5.063  0.2694E-01  0.1031E-01  0.3697E-01
     -4.967  0.2547E-01  0.1691E-01  0.7855E-01
     -4.872  0.3681E-01  0.3032E-01  0.1226E+00
     -4.776  0.4903E-01  0.4864E-01  0.1356E+00
     -4.681  0.5431E-01  0.6276E-01  0.1110E+00
     -4.585  0.5425E-01  0.5987E-01  0.8784E-01
     -4.489  0.5798E-01  0.4052E-01  0.1279E+00
     -4.394  0.7664E-01  0.2099E-01  0.2927E+00
     -4.298  0.1103E+00  0.1275E-01  0.5774E+00
     -4.202  0.1352E+00  0.1570E-01  0.8216E+00
     -4.107  0.1306E+00  0.3127E-01  0.8577E+00
     -4.011  0.1211E+00  0.6646E-01  0.7797E+00
     -3.915  0.1434E+00  0.1170E+00  0.8082E+00
     -3.820  0.1876E+00  0.1611E+00  0.1009E+01
     -3.724  0.2160E+00  0.1844E+00  0.1347E+01
     -3.628  0.2058E+00  0.1908E+00  0.1776E+01
     -3.533  0.1580E+00  0.1820E+00  0.2148E+01
     -3.437  0.9552E-01  0.1543E+00  0.2250E+01
     -3.342  0.4675E-01  0.1182E+00  0.2047E+01
     -3.246  0.2091E-01  0.1004E+00  0.1799E+01
     -3.150  0.9868E-02  0.1167E+00  0.1767E+01
     -3.055  0.5391E-02  0.1460E+00  0.1881E+01
     -2.959  0.4078E-02  0.1503E+00  0.1899E+01
     -2.863  0.4528E-02  0.1227E+00  0.1811E+01
     -2.768  0.6252E-02  0.9299E-01  0.1847E+01
     -2.672  0.9224E-02  0.8615E-01  0.2120E+01
     -2.576  0.1273E-01  0.9907E-01  0.2457E+01
     -2.481  0.1527E-01  0.1142E+00  0.2620E+01
     -2.385  0.1590E-01  0.1229E+00  0.2509E+01
     -2.290  0.1533E-01  0.1285E+00  0.2209E+01
     -2.194  0.1552E-01  0.1298E+00  0.1954E+01
     -2.098  0.1726E-01  0.1216E+00  0.1939E+01
     -2.003  0.1937E-01  0.1110E+00  0.2157E+01
     -1.907  0.2073E-01  0.1083E+00  0.2461E+01
     -1.811  0.2157E-01  0.1102E+00  0.2684E+01
     -1.716  0.2210E-01  0.1114E+00  0.2786E+01
     -1.620  0.2158E-01  0.1156E+00  0.2838E+01
     -1.524  0.1931E-01  0.1241E+00  0.2796E+01
     -1.429  0.1584E-01  0.1276E+00  0.2562E+01
     -1.333  0.1278E-01  0.1195E+00  0.2287E+01
     -1.238  0.1113E-01  0.1037E+00  0.2204E+01
     -1.142  0.1043E-01  0.8523E-01  0.2251E+01
     -1.046  0.9927E-02  0.6583E-01  0.2219E+01
     -0.951  0.9579E-02  0.4835E-01  0.2062E+01
     -0.855  0.9369E-02  0.3568E-01  0.1861E+01
     -0.759  0.8860E-02  0.2812E-01  0.1716E+01
     -0.664  0.8089E-02  0.2503E-01  0.1696E+01
     -0.568  0.7596E-02  0.2623E-01  0.1726E+01
     -0.472  0.7440E-02  0.3158E-01  0.1672E+01
     -0.377  0.7572E-02  0.4000E-01  0.1552E+01
     -0.281  0.8503E-02  0.4886E-01  0.1481E+01
     -0.185  0.1023E-01  0.5457E-01  0.1497E+01
     -0.090  0.1146E-01  0.5467E-01  0.1572E+01
      0.006  0.1097E-01  0.4948E-01  0.1645E+01
      0.101  0.9055E-02  0.4147E-01  0.1619E+01
      0.197  0.7077E-02  0.3437E-01  0.1461E+01
      0.293  0.6213E-02  0.3147E-01  0.1251E+01
      0.388  0.7195E-02  0.3269E-01  0.1051E+01
      0.484  0.9801E-02  0.3456E-01  0.8460E+00
      0.580  0.1168E-01  0.3307E-01  0.6150E+00
      0.675  0.1046E-01  0.2736E-01  0.3854E+00
      0.771  0.7601E-02  0.2146E-01  0.2044E+00
      0.867  0.7180E-02  0.2066E-01  0.9789E-01
      0.962  0.1097E-01  0.2783E-01  0.5413E-01
      1.058  0.1603E-01  0.4445E-01  0.4408E-01
      1.153  0.1833E-01  0.6898E-01  0.4570E-01
      1.249  0.1833E-01  0.9156E-01  0.4915E-01
      1.345  0.1895E-01  0.9794E-01  0.5042E-01
      1.440  0.2073E-01  0.8408E-01  0.4682E-01
      1.536  0.2318E-01  0.6051E-01  0.3940E-01
      1.632  0.2481E-01  0.3920E-01  0.3129E-01
      1.727  0.2174E-01  0.2333E-01  0.2247E-01
      1.823  0.1362E-01  0.1171E-01  0.1275E-01
      1.919  0.5719E-02  0.4403E-02  0.5117E-02
      2.014  0.1568E-02  0.1145E-02  0.1375E-02
      2.110  0.2780E-03  0.1978E-03  0.2415E-03
      2.205  0.3173E-04  0.2229E-04  0.2743E-04
      2.301  0.2324E-05  0.1623E-05  0.2005E-05
      2.397  0.1091E-06  0.7596E-07  0.9405E-07
      2.492  0.3279E-08  0.2278E-08  0.2824E-08
      2.588  0.6295E-10  0.4371E-10  0.5420E-10
      2.684  0.7715E-12  0.5355E-12  0.6643E-12
      2.779  0.6027E-14  0.4182E-14  0.5188E-14
      2.875  0.3386E-16  0.2349E-16  0.2915E-16
      2.971  0.0000E+00  0.0000E+00  0.0000E+00
      3.066  0.0000E+00  0.0000E+00  0.0000E+00
      3.162  0.0000E+00  0.0000E+00  0.0000E+00
      3.258  0.0000E+00  0.0000E+00  0.0000E+00
      3.353  0.0000E+00  0.0000E+00  0.0000E+00
      3.449  0.0000E+00  0.0000E+00  0.0000E+00
      3.544  0.0000E+00  0.0000E+00  0.0000E+00
      3.640  0.0000E+00  0.0000E+00  0.0000E+00
      3.64008152    -25.05163391  301     -0.07439238      1.00000000
    -25.052  0.0000E+00  0.0000E+00  0.0000E+00
    -24.956  0.0000E+00  0.0000E+00  0.0000E+00
    -24.860  0.0000E+00  0.0000E+00  0.0000E+00
    -24.765  0.0000E+00  0.0000E+00  0.0000E+00
    -24.669  0.0000E+00  0.0000E+00  0.0000E+00
    -24.573  0.0000E+00  0.0000E+00  0.0000E+00
    -24.478  0.0000E+00  0.0000E+00  0.0000E+00
    -24.382  0.0000E+00  0.0000E+00  0.0000E+00
    -24.287  0.0000E+00  0.0000E+00  0.0000E+00
    -24.191  0.4101E-25  0.3974E-25  0.1660E-25
    -24.095  0.8348E-23  0.8090E-23  0.3380E-23
    -24.000  0.1068E-20  0.1035E-20  0.4323E-21
    -23.904  0.8712E-19  0.8443E-19  0.3527E-19
    -23.808  0.4537E-17  0.4397E-17  0.1837E-17
    -23.713  0.1510E-15  0.1463E-15  0.6112E-16
    -23.617  0.3214E-14  0.3115E-14  0.1301E-14
    -23.521  0.4382E-13  0.4247E-13  0.1774E-13
    -23.426  0.3832E-12  0.3713E-12  0.1551E-12
    -23.330  0.2151E-11  0.2085E-11  0.8709E-12
    -23.234  0.7761E-11  0.7522E-11  0.3142E-11
    -23.139  0.1801E-10  0.1746E-10  0.7293E-11
    -23.043  0.2691E-10  0.2608E-10  0.1090E-10
    -22.948  0.2589E-10  0.2509E-10  0.1048E-10
    -22.852  0.1604E-10  0.1554E-10  0.6493E-11
    -22.756  0.6393E-11  0.6196E-11  0.2588E-11
    -22.661  0.1639E-11  0.1589E-11  0.6637E-12
    -22.565  0.2701E-12  0.2618E-12  0.1094E-12
    -22.469  0.2857E-13  0.2769E-13  0.1157E-13
    -22.374  0.1937E-14  0.1878E-14  0.7844E-15
    -22.278  0.8413E-16  0.8153E-16  0.3406E-16
    -22.182  0.2337E-17  0.2265E-17  0.9461E-18
    -22.087  0.4146E-19  0.4018E-19  0.1679E-19
    -21.991  0.4696E-21  0.4550E-21  0.1901E-21
    -21.896  0.3374E-23  0.3270E-23  0.1366E-23
    -21.800  0.2343E-25  0.2271E-25  0.9487E-26
    -21.704  0.0000E+00  0.0000E+00  0.0000E+00
    -21.609  0.0000E+00  0.0000E+00  0.0000E+00
    -21.513  0.0000E+00  0.0000E+00  0.0000E+00
    -21.417  0.0000E+00  0.0000E+00  0.0000E+00
    -21.322  0.0000E+00  0.0000E+00  0.0000E+00
    -21.226  0.0000E+00  0.0000E+00  0.0000E+00
    -21.130  0.0000E+00  0.0000E+00  0.0000E+00
    -21.035  0.0000E+00  0.0000E+00  0.0000E+00
    -20.939  0.0000E+00  0.0000E+00  0.0000E+00
    -20.844  0.0000E+00  0.0000E+00  0.0000E+00
    -20.748  0.0000E+00  0.0000E+00  0.0000E+00
    -20.652  0.0000E+00  0.0000E+00  0.0000E+00
    -20.557  0.0000E+00  0.0000E+00  0.0000E+00
    -20.461  0.0000E+00  0.0000E+00  0.0000E+00
    -20.365  0.5746E-22  0.4016E-22  0.1286E-22
    -20.270  0.1174E-19  0.8205E-20  0.2636E-20
    -20.174  0.1622E-17  0.1134E-17  0.3651E-18
    -20.078  0.1430E-15  0.1000E-15  0.3227E-16
    -19.983  0.8057E-14  0.5639E-14  0.1825E-14
    -19.887  0.2907E-12  0.2036E-12  0.6623E-13
    -19.791  0.6732E-11  0.4721E-11  0.1546E-11
    -19.696  0.1004E-09  0.7054E-10  0.2334E-10
    -19.600  0.9691E-09  0.6825E-09  0.2290E-09
    -19.505  0.6093E-08  0.4307E-08  0.1474E-08
    -19.409  0.2519E-07  0.1790E-07  0.6288E-08
    -19.313  0.6939E-07  0.4966E-07  0.1802E-07
    -19.218  0.1294E-06  0.9336E-07  0.3517E-07
    -19.122  0.1658E-06  0.1207E-06  0.4723E-07
    -19.026  0.1476E-06  0.1083E-06  0.4382E-07
    -18.931  0.9131E-07  0.6745E-07  0.2796E-07
    -18.835  0.3890E-07  0.2884E-07  0.1213E-07
    -18.739  0.1123E-07  0.8340E-08  0.3531E-08
    -18.644  0.2165E-08  0.1607E-08  0.6809E-09
    -18.548  0.2746E-09  0.2037E-09  0.8612E-10
    -18.453  0.2270E-10  0.1682E-10  0.7088E-11
    -18.357  0.1215E-11  0.8987E-12  0.3774E-12
    -18.261  0.4187E-13  0.3094E-13  0.1295E-13
    -18.166  0.9260E-15  0.6836E-15  0.2852E-15
    -18.070  0.1336E-16  0.9824E-17  0.4133E-17
    -17.974  0.1419E-16  0.8671E-17  0.6126E-17
    -17.879  0.5081E-15  0.3100E-15  0.2200E-15
    -17.783  0.1174E-13  0.7163E-14  0.5081E-14
    -17.687  0.1737E-12  0.1060E-12  0.7517E-13
    -17.592  0.1647E-11  0.1005E-11  0.7130E-12
    -17.496  0.1003E-10  0.6119E-11  0.4341E-11
    -17.401  0.3923E-10  0.2394E-10  0.1698E-10
    -17.305  0.9872E-10  0.6024E-10  0.4273E-10
    -17.209  0.1599E-09  0.9756E-10  0.6921E-10
    -17.114  0.1667E-09  0.1017E-09  0.7217E-10
    -17.018  0.1119E-09  0.6831E-10  0.4846E-10
    -16.922  0.4838E-10  0.2952E-10  0.2094E-10
    -16.827  0.1345E-10  0.8209E-11  0.5823E-11
    -16.731  0.2404E-11  0.1467E-11  0.1041E-11
    -16.635  0.2758E-12  0.1683E-12  0.1194E-12
    -16.540  0.2029E-13  0.1238E-13  0.8784E-14