       N       E                     dE             d eps       ncg     rms          rms(c)
DAV:   1     0.576381074994E+04    0.57638E+04   -0.30914E+05   738   0.202E+03
DAV:   2     0.280655276467E+03   -0.54832E+04   -0.53477E+04   738   0.447E+02
DAV:   3    -0.324348521352E+03   -0.60500E+03   -0.54036E+03   738   0.192E+02
DAV:   4    -0.433319255376E+03   -0.10897E+03   -0.10153E+03  1431   0.524E+01
DAV:   5    -0.451343429227E+03   -0.18024E+02   -0.16812E+02  1206   0.197E+01    0.328E+01
RMM:   6    -0.675449487970E+03   -0.22411E+03   -0.40756E+02   842   0.447E+01    0.151E+02
RMM:   7    -0.515885786323E+03    0.15956E+03   -0.19745E+02   742   0.423E+01    0.103E+02
RMM:   8    -0.455424434421E+03    0.60461E+02   -0.52349E+01   745   0.195E+01    0.441E+01
RMM:   9    -0.450745605046E+03    0.46788E+01   -0.14876E+01   938   0.632E+00    0.288E+01
RMM:  10    -0.449778366706E+03    0.96724E+00   -0.33812E+00   840   0.343E+00    0.255E+01
RMM:  11    -0.450614834398E+03   -0.83647E+00   -0.49592E+00   757   0.524E+00    0.291E+01
RMM:  12    -0.454104297895E+03   -0.34895E+01   -0.94406E+00   745   0.790E+00    0.413E+01
RMM:  13    -0.458545567407E+03   -0.44413E+01   -0.17416E+01   747   0.111E+01    0.492E+01
RMM:  14    -0.453684584760E+03    0.48610E+01   -0.10320E+01   745   0.928E+00    0.390E+01
RMM:  15    -0.449936099316E+03    0.37485E+01   -0.35665E+00   747   0.505E+00    0.213E+01
RMM:  16    -0.449471484750E+03    0.46461E+00   -0.23073E+00   745   0.390E+00    0.203E+01
RMM:  17    -0.448803084848E+03    0.66840E+00   -0.11023E+00   751   0.278E+00    0.144E+01
RMM:  18    -0.448485341720E+03    0.31774E+00   -0.70321E-01   751   0.235E+00    0.117E+01
RMM:  19    -0.448317620154E+03    0.16772E+00   -0.36732E-01   749   0.164E+00    0.869E+00
RMM:  20    -0.448391904794E+03   -0.74285E-01   -0.29277E-01   752   0.139E+00    0.105E+01
RMM:  21    -0.448205622615E+03    0.18628E+00   -0.18037E-01   752   0.115E+00    0.696E+00
RMM:  22    -0.448135531083E+03    0.70092E-01   -0.66646E-02   765   0.640E-01    0.522E+00
RMM:  23    -0.448128168267E+03    0.73628E-02   -0.44623E-02   763   0.483E-01    0.504E+00
RMM:  24    -0.448113035564E+03    0.15133E-01   -0.48292E-02   761   0.521E-01    0.476E+00
RMM:  25    -0.448076207138E+03    0.36828E-01   -0.25637E-02   752   0.415E-01    0.288E+00
RMM:  26    -0.448084880752E+03   -0.86736E-02   -0.39846E-02   750   0.489E-01    0.351E+00
RMM:  27    -0.448083119523E+03    0.17612E-02   -0.34078E-02   746   0.465E-01    0.313E+00
RMM:  28    -0.448070633852E+03    0.12486E-01   -0.30950E-02   748   0.478E-01    0.281E+00
RMM:  29    -0.448058334819E+03    0.12299E-01   -0.13335E-02   748   0.292E-01    0.169E+00
RMM:  30    -0.448057997523E+03    0.33730E-03   -0.11223E-02   763   0.249E-01    0.170E+00
RMM:  31    -0.448053525498E+03    0.44720E-02   -0.79650E-03   761   0.223E-01    0.117E+00
RMM:  32    -0.448050391957E+03    0.31335E-02   -0.48145E-03   766   0.167E-01    0.650E-01
RMM:  33    -0.448050164226E+03    0.22773E-03   -0.29822E-03   816   0.112E-01    0.544E-01
RMM:  34    -0.448050428137E+03   -0.26391E-03   -0.21340E-03   770   0.104E-01    0.595E-01
RMM:  35    -0.448049508977E+03    0.91916E-03   -0.11492E-03   755   0.860E-02    0.229E-01
RMM:  36    -0.448049531845E+03   -0.22867E-04   -0.67463E-04   797   0.568E-02    0.240E-01
RMM:  37    -0.448049642477E+03   -0.11063E-03   -0.45661E-04   742   0.528E-02    0.279E-01
RMM:  38    -0.448049451664E+03    0.19081E-03   -0.26969E-04   745   0.464E-02    0.143E-01
RMM:  39    -0.448049427265E+03    0.24400E-04   -0.13508E-04   750   0.297E-02    0.114E-01
RMM:  40    -0.448049472196E+03   -0.44931E-04   -0.13011E-04   737   0.283E-02    0.137E-01
RMM:  41    -0.448049457658E+03    0.14538E-04   -0.82945E-05   740   0.253E-02    0.105E-01
RMM:  42    -0.448049433510E+03    0.24148E-04   -0.37247E-05   740   0.170E-02    0.501E-02
RMM:  43    -0.448049450854E+03   -0.17344E-04   -0.28668E-05   761   0.128E-02    0.692E-02
RMM:  44    -0.448049462254E+03   -0.11400E-04   -0.19186E-05   739   0.114E-02    0.573E-02
RMM:  45    -0.448049459438E+03    0.28160E-05   -0.10312E-05   712   0.893E-03    0.213E-02
RMM:  46    -0.448049464126E+03   -0.46877E-05   -0.47573E-06   551   0.519E-03    0.240E-02
RMM:  47    -0.448049473724E+03   -0.95977E-05   -0.38977E-06   512   0.547E-03    0.224E-02
RMM:  48    -0.448049480655E+03   -0.69308E-05   -0.23541E-06   440   0.487E-03    0.132E-02
RMM:  49    -0.448049483495E+03   -0.28409E-05   -0.10885E-06   401   0.315E-03    0.847E-03
RMM:  50    -0.448049491616E+03   -0.81204E-05   -0.12335E-06   409   0.303E-03    0.135E-02
RMM:  51    -0.448049498036E+03   -0.64199E-05   -0.10680E-06   404   0.325E-03    0.108E-02
RMM:  52    -0.448049501925E+03   -0.38897E-05   -0.68985E-07   401   0.242E-03    0.547E-03
RMM:  53    -0.448049505794E+03   -0.38682E-05   -0.49715E-07   401   0.188E-03    0.737E-03
RMM:  54    -0.448049511530E+03   -0.57366E-05   -0.58641E-07   400   0.206E-03    0.759E-03
RMM:  55    -0.448049517260E+03   -0.57303E-05   -0.60462E-07   400   0.199E-03    0.606E-03
RMM:  56    -0.448049516718E+03    0.54227E-06   -0.32727E-07   393   0.179E-03
   1 F= -.46388833E+03 E0= -.46240112E+03  d E =-.297441E+01
       N       E                     dE             d eps       ncg     rms          rms(c)
DAV:   1    -0.448043004916E+03    0.65123E-02   -0.12245E+00   747   0.158E+00    0.277E-01
RMM:   2    -0.448045701153E+03   -0.26962E-02   -0.30632E-02   856   0.290E-01    0.361E-01
RMM:   3    -0.448049883641E+03   -0.41825E-02   -0.79388E-03   761   0.211E-01    0.122E+00
RMM:   4    -0.448051530429E+03   -0.16468E-02   -0.34712E-03   748   0.154E-01    0.150E+00
RMM:   5    -0.448046109842E+03    0.54206E-02   -0.19138E-03   742   0.130E-01    0.504E-01
RMM:   6    -0.448045587079E+03    0.52276E-03   -0.10118E-03   749   0.795E-02    0.350E-01
RMM:   7    -0.448046362940E+03   -0.77586E-03   -0.12512E-03   750   0.864E-02    0.603E-01
RMM:   8    -0.448046158112E+03    0.20483E-03   -0.10524E-03   744   0.858E-02    0.475E-01
RMM:   9    -0.448045631120E+03    0.52699E-03   -0.72677E-04   744   0.772E-02    0.275E-01
RMM:  10    -0.448045600658E+03    0.30462E-04   -0.47880E-04   741   0.570E-02    0.248E-01
RMM:  11    -0.448045803777E+03   -0.20312E-03   -0.46215E-04   743   0.545E-02    0.357E-01
RMM:  12    -0.448045506879E+03    0.29690E-03   -0.23327E-04   741   0.448E-02    0.170E-01
RMM:  13    -0.448045433325E+03    0.73553E-04   -0.97182E-05   739   0.272E-02    0.823E-02
RMM:  14    -0.448045435133E+03   -0.18073E-05   -0.60389E-05   745   0.193E-02    0.849E-02
RMM:  15    -0.448045445954E+03   -0.10821E-04   -0.44776E-05   751   0.166E-02    0.106E-01
RMM:  16    -0.448045417619E+03    0.28335E-04   -0.20786E-05   734   0.130E-02    0.363E-02
RMM:  17    -0.448045415498E+03    0.21207E-05   -0.95234E-06   713   0.724E-03    0.229E-02
RMM:  18    -0.448045416559E+03   -0.10609E-05   -0.54421E-06   566   0.570E-03    0.260E-02
RMM:  19    -0.448045417066E+03   -0.50733E-06   -0.36671E-06   504   0.552E-03
   2 F= -.46388418E+03 E0= -.46239649E+03  d E =-.297538E+01
       N       E                     dE             d eps       ncg     rms          rms(c)
DAV:   1    -0.448042788734E+03    0.26278E-02   -0.48829E+00   738   0.315E+00    0.572E-01
RMM:   2    -0.448053723380E+03   -0.10935E-01   -0.12749E-01   859   0.588E-01    0.739E-01
RMM:   3    -0.448072280666E+03   -0.18557E-01   -0.34217E-02   763   0.439E-01    0.257E+00
RMM:   4    -0.448070672484E+03    0.16082E-02   -0.14079E-02   749   0.324E-01    0.259E+00
RMM:   5    -0.448054589854E+03    0.16083E-01   -0.66110E-03   744   0.237E-01    0.102E+00
RMM:   6    -0.448053025965E+03    0.15639E-02   -0.40280E-03   753   0.156E-01    0.773E-01
RMM:   7    -0.448056508461E+03   -0.34825E-02   -0.57353E-03   750   0.186E-01    0.126E+00
RMM:   8    -0.448054827846E+03    0.16806E-02   -0.42327E-03   746   0.176E-01    0.939E-01
RMM:   9    -0.448052980523E+03    0.18473E-02   -0.28638E-03   747   0.151E-01    0.587E-01
RMM:  10    -0.448053056122E+03   -0.75599E-04   -0.21243E-03   749   0.118E-01    0.581E-01
RMM:  11    -0.448053671280E+03   -0.61516E-03   -0.20291E-03   747   0.116E-01    0.703E-01
RMM:  12    -0.448052424145E+03    0.12471E-02   -0.10406E-03   746   0.959E-02    0.339E-01
RMM:  13    -0.448052133052E+03    0.29109E-03   -0.41864E-04   745   0.558E-02    0.183E-01
RMM:  14    -0.448052168277E+03   -0.35226E-04   -0.28028E-04   747   0.417E-02    0.208E-01
RMM:  15    -0.448052179640E+03   -0.11362E-04   -0.19710E-04   758   0.362E-02    0.214E-01
RMM:  16    -0.448052057402E+03    0.12224E-03   -0.91265E-05   744   0.273E-02    0.722E-02
RMM:  17    -0.448052051224E+03    0.61785E-05   -0.44055E-05   787   0.149E-02    0.549E-02
RMM:  18    -0.448052055021E+03   -0.37969E-05   -0.27710E-05   783   0.115E-02    0.593E-02
RMM:  19    -0.448052052759E+03    0.22622E-05   -0.16578E-05   761   0.102E-02    0.490E-02
RMM:  20    -0.448052047909E+03    0.48500E-05   -0.97565E-06   725   0.836E-03    0.224E-02
RMM:  21    -0.448052055260E+03   -0.73514E-05   -0.10910E-05   730   0.822E-03    0.441E-02
RMM:  22    -0.448052057565E+03   -0.23053E-05   -0.88621E-06   683   0.803E-03    0.415E-02
RMM:  23    -0.448052054343E+03    0.32223E-05   -0.45524E-06   546   0.643E-03    0.202E-02
RMM:  24    -0.448052054074E+03    0.26882E-06   -0.18550E-06   416   0.403E-03
   3 F= -.46389092E+03 E0= -.46240419E+03  d E =-.297346E+01
       N       E                     dE             d eps       ncg     rms          rms(c)
DAV:   1    -0.448045469308E+03    0.65850E-02   -0.25283E+00   738   0.241E+00    0.338E-01
RMM:   2    -0.448051289349E+03   -0.58200E-02   -0.58369E-02   889   0.418E-01    0.411E-01
RMM:   3    -0.448058415554E+03   -0.71262E-02   -0.10715E-02   746   0.265E-01    0.164E+00
RMM:   4    -0.448060176018E+03   -0.17605E-02   -0.56876E-03   752   0.198E-01    0.178E+00
RMM:   5    -0.448052277431E+03    0.78986E-02   -0.28450E-03   746   0.155E-01    0.710E-01
RMM:   6    -0.448050967375E+03    0.13101E-02   -0.15408E-03   752   0.100E-01    0.343E-01
RMM:   7    -0.448051699114E+03   -0.73174E-03   -0.15518E-03   744   0.959E-02    0.587E-01
RMM:   8    -0.448051945466E+03   -0.24635E-03   -0.14490E-03   744   0.988E-02    0.608E-01
RMM:   9    -0.448051241436E+03    0.70403E-03   -0.99717E-04   744   0.892E-02    0.433E-01
RMM:  10    -0.448050811082E+03    0.43035E-03   -0.45561E-04   743   0.583E-02    0.182E-01
RMM:  11    -0.448050864380E+03   -0.53298E-04   -0.33609E-04   748   0.453E-02    0.210E-01
RMM:  12    -0.448050853542E+03    0.10838E-04   -0.22239E-04   746   0.396E-02    0.196E-01
RMM:  13    -0.448050756887E+03    0.96655E-04   -0.11215E-04   742   0.302E-02    0.117E-01
RMM:  14    -0.448050723956E+03    0.32931E-04   -0.46681E-05   754   0.176E-02    0.519E-02
RMM:  15    -0.448050731689E+03   -0.77333E-05   -0.30505E-05   769   0.126E-02    0.710E-02
RMM:  16    -0.448050722300E+03    0.93892E-05   -0.15848E-05   749   0.102E-02    0.408E-02
RMM:  17    -0.448050718754E+03    0.35462E-05   -0.82426E-06   654   0.711E-03    0.263E-02
RMM:  18    -0.448050718064E+03    0.69044E-06   -0.38820E-06   510   0.493E-03
   4 F= -.46388964E+03 E0= -.46240288E+03  d E =-.297352E+01
       N       E                     dE             d eps       ncg     rms          rms(c)
DAV:   1    -0.448035623273E+03    0.15095E-01   -0.48756E+00   738   0.320E+00    0.569E-01
RMM:   2    -0.448046861476E+03   -0.11238E-01   -0.13243E-01   816   0.590E-01    0.584E-01
RMM:   3    -0.448075490097E+03   -0.28629E-01   -0.32002E-02   749   0.438E-01    0.319E+00
RMM:   4    -0.448059655187E+03    0.15835E-01   -0.13572E-02   746   0.330E-01    0.212E+00
RMM:   5    -0.448048346171E+03    0.11309E-01   -0.53832E-03   744   0.207E-01    0.937E-01
RMM:   6    -0.448046943850E+03    0.14023E-02   -0.32432E-03   761   0.136E-01    0.669E-01
RMM:   7    -0.448049680050E+03   -0.27362E-02   -0.50640E-03   746   0.177E-01    0.106E+00
RMM:   8    -0.448048639932E+03    0.10401E-02   -0.38579E-03   748   0.169E-01    0.867E-01
RMM:   9    -0.448046975936E+03    0.16640E-02   -0.25672E-03   745   0.143E-01    0.506E-01
RMM:  10    -0.448047100493E+03   -0.12456E-03   -0.16764E-03   747   0.105E-01    0.545E-01
RMM:  11    -0.448047457566E+03   -0.35707E-03   -0.15023E-03   748   0.993E-02    0.624E-01
RMM:  12    -0.448046537455E+03    0.92011E-03   -0.76611E-04   746   0.813E-02    0.301E-01
RMM:  13    -0.448046311336E+03    0.22612E-03   -0.31521E-04   743   0.481E-02    0.164E-01
RMM:  14    -0.448046331630E+03   -0.20294E-04   -0.19479E-04   752   0.337E-02    0.184E-01
RMM:  15    -0.448046327580E+03    0.40504E-05   -0.14597E-04   751   0.309E-02    0.163E-01
RMM:  16    -0.448046254682E+03    0.72898E-04   -0.76126E-05   751   0.244E-02    0.764E-02
RMM:  17    -0.448046242778E+03    0.11904E-04   -0.35562E-05   776   0.137E-02    0.475E-02
RMM:  18    -0.448046245985E+03   -0.32070E-05   -0.23077E-05   765   0.108E-02    0.539E-02
RMM:  19    -0.448046243586E+03    0.23984E-05   -0.14467E-05   745   0.965E-03    0.429E-02
RMM:  20    -0.448046239477E+03    0.41092E-05   -0.86315E-06   701   0.780E-03    0.213E-02
RMM:  21    -0.448046242804E+03   -0.33273E-05   -0.74451E-06   663   0.680E-03    0.343E-02
RMM:  22    -0.448046245732E+03   -0.29282E-05   -0.71060E-06   632   0.720E-03    0.385E-02
RMM:  23    -0.448046241944E+03    0.37883E-05   -0.35496E-06   499   0.598E-03    0.159E-02
RMM:  24    -0.448046242012E+03   -0.67870E-07   -0.14811E-06   398   0.359E-03
   5 F= -.46388495E+03 E0= -.46239735E+03  d E =-.297520E+01
       N       E                     dE             d eps       ncg     rms          rms(c)
DAV:   1    -0.448032943401E+03    0.13299E-01   -0.24654E+00   738   0.233E+00    0.392E-01
RMM:   2    -0.448040276169E+03   -0.73328E-02   -0.72644E-02   797   0.475E-01    0.573E-01
RMM:   3    -0.448046243035E+03   -0.59669E-02   -0.10936E-02   757   0.255E-01    0.155E+00
RMM:   4    -0.448049632850E+03   -0.33898E-02   -0.61765E-03   748   0.200E-01    0.187E+00
RMM:   5    -0.448041399451E+03    0.82334E-02   -0.30541E-03   747   0.162E-01    0.881E-01
RMM:   6    -0.448039635385E+03    0.17641E-02   -0.22792E-03   741   0.128E-01    0.469E-01
RMM:   7    -0.448041844910E+03   -0.22095E-02   -0.35317E-03   745   0.148E-01    0.935E-01
RMM:   8    -0.448041810328E+03    0.34582E-04   -0.34592E-03   744   0.154E-01    0.881E-01
RMM:   9    -0.448039906093E+03    0.19042E-02   -0.21795E-03   743   0.137E-01    0.485E-01
RMM:  10    -0.448039383156E+03    0.52294E-03   -0.86738E-04   744   0.787E-02    0.272E-01
RMM:  11    -0.448039597747E+03   -0.21459E-03   -0.57978E-04   746   0.586E-02    0.392E-01
RMM:  12    -0.448039361147E+03    0.23660E-03   -0.38791E-04   745   0.517E-02    0.237E-01
RMM:  13    -0.448039202851E+03    0.15830E-03   -0.22684E-04   746   0.426E-02    0.127E-01
RMM:  14    -0.448039197233E+03    0.56180E-05   -0.10644E-04   748   0.261E-02    0.116E-01
RMM:  15    -0.448039217869E+03   -0.20637E-04   -0.81480E-05   739   0.233E-02    0.137E-01
RMM:  16    -0.448039166259E+03    0.51610E-04   -0.37219E-05   740   0.179E-02    0.547E-02
RMM:  17    -0.448039160356E+03    0.59039E-05   -0.15776E-05   743   0.959E-03    0.332E-02
RMM:  18    -0.448039160142E+03    0.21375E-06   -0.90929E-06   690   0.679E-03
   6 F= -.46387776E+03 E0= -.46239037E+03  d E =-.297479E+01
       N       E                     dE             d eps       ncg     rms          rms(c)
DAV:   1    -0.448044026631E+03   -0.48663E-02   -0.49583E+00   738   0.323E+00    0.595E-01
RMM:   2    -0.448061383631E+03   -0.17357E-01   -0.15637E-01   775   0.729E-01    0.112E+00
RMM:   3    -0.448067690166E+03   -0.63065E-02   -0.24440E-02   763   0.365E-01    0.187E+00
RMM:   4    -0.448071394350E+03   -0.37042E-02   -0.12241E-02   765   0.264E-01    0.221E+00
RMM:   5    -0.448061757927E+03    0.96364E-02   -0.61803E-03   746   0.223E-01    0.126E+00
RMM:   6    -0.448060546846E+03    0.12111E-02   -0.55237E-03   748   0.188E-01    0.108E+00
RMM:   7    -0.448068333250E+03   -0.77864E-02   -0.11216E-02   748   0.263E-01    0.187E+00
RMM:   8    -0.448063878961E+03    0.44543E-02   -0.92668E-03   744   0.259E-01    0.133E+00
RMM:   9    -0.448059690665E+03    0.41883E-02   -0.75335E-03   743   0.249E-01    0.802E-01
RMM:  10    -0.448059190180E+03    0.50048E-03   -0.43178E-03   745   0.174E-01    0.680E-01
RMM:  11    -0.448060765442E+03   -0.15753E-02   -0.35089E-03   746   0.153E-01    0.101E+00
RMM:  12    -0.448057995254E+03    0.27702E-02   -0.17490E-03   746   0.127E-01    0.334E-01
RMM:  13    -0.448057731458E+03    0.26380E-03   -0.60467E-04   742   0.649E-02    0.225E-01
RMM:  14    -0.448057795703E+03   -0.64245E-04   -0.36587E-04   749   0.463E-02    0.273E-01
RMM:  15    -0.448057726245E+03    0.69458E-04   -0.22779E-04   754   0.389E-02    0.214E-01
RMM:  16    -0.448057607264E+03    0.11898E-03   -0.13131E-04   752   0.317E-02    0.971E-02
RMM:  17    -0.448057592692E+03    0.14572E-04   -0.63080E-05   783   0.176E-02    0.676E-02
RMM:  18    -0.448057602016E+03   -0.93245E-05   -0.46013E-05   759   0.158E-02    0.798E-02
RMM:  19    -0.448057589821E+03    0.12196E-04   -0.27362E-05   759   0.139E-02    0.520E-02
RMM:  20    -0.448057583485E+03    0.63360E-05   -0.14765E-05   735   0.103E-02    0.308E-02
RMM:  21    -0.448057588096E+03   -0.46113E-05   -0.13538E-05   738   0.885E-03    0.459E-02
RMM:  22    -0.448057589340E+03   -0.12443E-05   -0.12340E-05   728   0.895E-03    0.450E-02
RMM:  23    -0.448057584386E+03    0.49542E-05   -0.69577E-06   671   0.759E-03    0.222E-02
RMM:  24    -0.448057583763E+03    0.62364E-06   -0.24922E-06   442   0.450E-03
   7 F= -.46389660E+03 E0= -.46240960E+03  d E =-.297401E+01
       N       E                     dE             d eps       ncg     rms          rms(c)
DAV:   1    -0.448042358893E+03    0.15225E-01   -0.23956E+00   738   0.217E+00    0.472E-01
RMM:   2    -0.448052013904E+03   -0.96550E-02   -0.10249E-01   859   0.496E-01    0.904E-01
RMM:   3    -0.448062610184E+03   -0.10596E-01   -0.18572E-02   767   0.313E-01    0.213E+00
RMM:   4    -0.448066235373E+03   -0.36252E-02   -0.90958E-03   761   0.236E-01    0.242E+00
RMM:   5    -0.448051174324E+03    0.15061E-01   -0.48688E-03   747   0.204E-01    0.847E-01
RMM:   6    -0.448049494394E+03    0.16799E-02   -0.30747E-03   746   0.148E-01    0.533E-01
RMM:   7    -0.448052445348E+03   -0.29510E-02   -0.42284E-03   744   0.161E-01    0.110E+00
RMM:   8    -0.448050960144E+03    0.14852E-02   -0.33240E-03   749   0.155E-01    0.794E-01
RMM:   9    -0.448049798266E+03    0.11619E-02   -0.25220E-03   750   0.140E-01    0.570E-01
RMM:  10    -0.448050168691E+03   -0.37043E-03   -0.19829E-03   746   0.115E-01    0.654E-01
RMM:  11    -0.448050564264E+03   -0.39557E-03   -0.19808E-03   743   0.115E-01    0.705E-01
RMM:  12    -0.448049318944E+03    0.12453E-02   -0.11823E-03   747   0.103E-01    0.325E-01
RMM:  13    -0.448049051940E+03    0.26700E-03   -0.56105E-04   743   0.656E-02    0.215E-01
RMM:  14    -0.448049121481E+03   -0.69540E-04   -0.30826E-04   744   0.441E-02    0.261E-01
RMM:  15    -0.448049058045E+03    0.63435E-04   -0.23635E-04   748   0.410E-02    0.219E-01
RMM:  16    -0.448048928746E+03    0.12930E-03   -0.94571E-05   747   0.285E-02    0.777E-02
RMM:  17    -0.448048926274E+03    0.24719E-05   -0.43633E-05   748   0.169E-02    0.714E-02
RMM:  18    -0.448048928732E+03   -0.24582E-05   -0.33565E-05   743   0.147E-02    0.677E-02
RMM:  19    -0.448048920410E+03    0.83217E-05   -0.20181E-05   741   0.124E-02    0.495E-02
RMM:  20    -0.448048915285E+03    0.51257E-05   -0.94544E-06   715   0.837E-03    0.243E-02
RMM:  21    -0.448048917947E+03   -0.26621E-05   -0.71308E-06   654   0.668E-03    0.334E-02
RMM:  22    -0.448048919475E+03   -0.15284E-05   -0.54827E-06   569   0.651E-03    0.317E-02
RMM:  23    -0.448048917838E+03    0.16371E-05   -0.32424E-06   467   0.577E-03    0.165E-02
RMM:  24    -0.448048917755E+03    0.82931E-07   -0.13742E-06   400   0.355E-03
   8 F= -.46388781E+03 E0= -.46240087E+03  d E =-.297387E+01
       N       E                     dE             d eps       ncg     rms          rms(c)
DAV:   1    -0.448036233564E+03    0.12684E-01   -0.49252E+00   738   0.278E+00    0.605E-01
RMM:   2    -0.448044742964E+03   -0.85094E-02   -0.12227E-01   883   0.459E-01    0.662E-01
RMM:   3    -0.448083912060E+03   -0.39169E-01   -0.37369E-02   753   0.443E-01    0.368E+00
RMM:   4    -0.448075363065E+03    0.85490E-02   -0.15559E-02   746   0.337E-01    0.329E+00
RMM:   5    -0.448046253610E+03    0.29109E-01   -0.87863E-03   741   0.273E-01    0.729E-01
RMM:   6    -0.448045083951E+03    0.11697E-02   -0.44824E-03   764   0.159E-01    0.605E-01
RMM:   7    -0.448047810041E+03   -0.27261E-02   -0.49313E-03   742   0.171E-01    0.107E+00
RMM:   8    -0.448046180311E+03    0.16297E-02   -0.32217E-03   750   0.154E-01    0.819E-01
RMM:   9    -0.448044587131E+03    0.15932E-02   -0.17679E-03   748   0.117E-01    0.363E-01
RMM:  10    -0.448044768469E+03   -0.18134E-03   -0.12668E-03   742   0.916E-02    0.411E-01
RMM:  11    -0.448045252751E+03   -0.48428E-03   -0.12102E-03   747   0.885E-02    0.578E-01
RMM:  12    -0.448044440438E+03    0.81231E-03   -0.68101E-04   745   0.754E-02    0.251E-01
RMM:  13    -0.448044275638E+03    0.16480E-03   -0.29296E-04   756   0.449E-02    0.146E-01
RMM:  14    -0.448044287010E+03   -0.11372E-04   -0.15256E-04   771   0.276E-02    0.147E-01
RMM:  15    -0.448044310626E+03   -0.23616E-04   -0.10752E-04   747   0.261E-02    0.175E-01
RMM:  16    -0.448044229500E+03    0.81126E-04   -0.48268E-05   745   0.194E-02    0.561E-02
RMM:  17    -0.448044224730E+03    0.47706E-05   -0.26861E-05   802   0.109E-02    0.439E-02
RMM:  18    -0.448044224466E+03    0.26352E-06   -0.16623E-05   771   0.886E-03    0.382E-02
RMM:  19    -0.448044227467E+03   -0.30005E-05   -0.12299E-05   730   0.858E-03    0.496E-02
RMM:  20    -0.448044221498E+03    0.59687E-05   -0.77277E-06   657   0.778E-03    0.206E-02
RMM:  21    -0.448044224601E+03   -0.31028E-05   -0.61869E-06   597   0.643E-03    0.369E-02
RMM:  22    -0.448044223830E+03    0.77130E-06   -0.51988E-06   562   0.664E-03
   9 F= -.46388296E+03 E0= -.46239551E+03  d E =-.297491E+01
       N       E                     dE             d eps       ncg     rms          rms(c)
DAV:   1    -0.448037928296E+03    0.62963E-02   -0.25124E+00   738   0.196E+00    0.416E-01
RMM:   2    -0.448043557765E+03   -0.56295E-02   -0.57142E-02   795   0.333E-01    0.845E-01
RMM:   3    -0.448050932172E+03   -0.73744E-02   -0.84113E-03   752   0.226E-01    0.182E+00
RMM:   4    -0.448061566313E+03   -0.10634E-01   -0.10161E-02   754   0.248E-01    0.269E+00
RMM:   5    -0.448043640691E+03    0.17926E-01   -0.63812E-03   744   0.238E-01    0.895E-01
RMM:   6    -0.448041484807E+03    0.21559E-02   -0.24195E-03   748   0.133E-01    0.435E-01
RMM:   7    -0.448043370682E+03   -0.18859E-02   -0.25384E-03   749   0.124E-01    0.921E-01
RMM:   8    -0.448042309825E+03    0.10609E-02   -0.19475E-03   747   0.118E-01    0.622E-01
RMM:   9    -0.448041494614E+03    0.81521E-03   -0.13091E-03   742   0.103E-01    0.403E-01
RMM:  10    -0.448041401332E+03    0.93281E-04   -0.85421E-04   742   0.776E-02    0.356E-01
RMM:  11    -0.448041532316E+03   -0.13098E-03   -0.72046E-04   747   0.705E-02    0.397E-01
RMM:  12    -0.448041123693E+03    0.40862E-03   -0.38450E-04   750   0.582E-02    0.199E-01
RMM:  13    -0.448041034611E+03    0.89082E-04   -0.12930E-04   749   0.305E-02    0.106E-01
RMM:  14    -0.448041052855E+03   -0.18244E-04   -0.94953E-05   740   0.247E-02    0.127E-01
RMM:  15    -0.448041039713E+03    0.13143E-04   -0.59900E-05   745   0.208E-02    0.102E-01
RMM:  16    -0.448041008084E+03    0.31628E-04   -0.31019E-05   740   0.163E-02    0.435E-02
RMM:  17    -0.448041004622E+03    0.34625E-05   -0.95208E-06   706   0.777E-03    0.275E-02
RMM:  18    -0.448041007490E+03   -0.28687E-05   -0.82245E-06   686   0.694E-03    0.374E-02
RMM:  19    -0.448041006476E+03    0.10141E-05   -0.57038E-06   575   0.651E-03    0.311E-02
RMM:  20    -0.448041004538E+03    0.19381E-05   -0.37038E-06   494   0.590E-03    0.166E-02
RMM:  21    -0.448041005649E+03   -0.11104E-05   -0.25640E-06   452   0.465E-03    0.230E-02
RMM:  22    -0.448041005986E+03   -0.33756E-06   -0.23656E-06   443   0.491E-03
  10 F= -.46387984E+03 E0= -.46239235E+03  d E =-.297499E+01
       N       E                     dE             d eps       ncg     rms          rms(c)
DAV:   1    -0.448043357734E+03   -0.23521E-02   -0.49469E+00   738   0.269E+00    0.480E-01
RMM:   2    -0.448056453222E+03   -0.13095E-01   -0.10122E-01   797   0.501E-01    0.126E+00
RMM:   3    -0.448056456933E+03   -0.37114E-05   -0.17115E-02   763   0.245E-01    0.126E+00
RMM:   4    -0.448067797314E+03   -0.11340E-01   -0.97212E-03   766   0.235E-01    0.238E+00
RMM:   5    -0.448057947210E+03    0.98501E-02   -0.88867E-03   747   0.245E-01    0.152E+00
RMM:   6    -0.448052905787E+03    0.50414E-02   -0.46959E-03   748   0.185E-01    0.689E-01
RMM:   7    -0.448058155242E+03   -0.52495E-02   -0.63478E-03   745   0.202E-01    0.149E+00
RMM:   8    -0.448053788610E+03    0.43666E-02   -0.37756E-03   745   0.173E-01    0.729E-01
RMM:   9    -0.448052541134E+03    0.12475E-02   -0.23178E-03   745   0.137E-01    0.484E-01
RMM:  10    -0.448052817051E+03   -0.27592E-03   -0.17098E-03   743   0.107E-01    0.549E-01
RMM:  11    -0.448053062528E+03   -0.24548E-03   -0.15016E-03   746   0.103E-01    0.601E-01
RMM:  12    -0.448052151031E+03    0.91150E-03   -0.78497E-04   743   0.827E-02    0.286E-01
RMM:  13    -0.448051945516E+03    0.20552E-03   -0.29148E-04   756   0.440E-02    0.137E-01
RMM:  14    -0.448051945969E+03   -0.45318E-06   -0.16844E-04   770   0.298E-02    0.132E-01
RMM:  15    -0.448051946343E+03   -0.37390E-06   -0.93190E-05   760   0.239E-02    0.125E-01
RMM:  16    -0.448051904663E+03    0.41679E-04   -0.53733E-05   761   0.199E-02    0.539E-02
RMM:  17    -0.448051904683E+03   -0.19376E-07   -0.27747E-05   770   0.121E-02    0.495E-02
RMM:  18    -0.448051920844E+03   -0.16161E-04   -0.25764E-05   749   0.123E-02    0.794E-02
RMM:  19    -0.448051906726E+03    0.14118E-04   -0.13525E-05   735   0.105E-02    0.327E-02
RMM:  20    -0.448051906376E+03    0.34995E-06   -0.76445E-06   685   0.713E-03
  11 F= -.46389070E+03 E0= -.46240376E+03  d E =-.297387E+01
       N       E                     dE             d eps       ncg     rms          rms(c)
DAV:   1    -0.448038432054E+03    0.13475E-01   -0.25407E+00   738   0.213E+00    0.335E-01
RMM:   2    -0.448047790448E+03   -0.93584E-02   -0.65089E-02   801   0.409E-01    0.112E+00
RMM:   3    -0.448045987572E+03    0.18029E-02   -0.78100E-03   759   0.212E-01    0.905E-01
RMM:   4    -0.448055135839E+03   -0.91483E-02   -0.61874E-03   764   0.189E-01    0.206E+00
RMM:   5    -0.448048040941E+03    0.70949E-02   -0.37255E-03   743   0.170E-01    0.113E+00
RMM:   6    -0.448044635294E+03    0.34056E-02   -0.20783E-03   742   0.130E-01    0.471E-01
RMM:   7    -0.448044554963E+03    0.80331E-04   -0.13678E-03   751   0.909E-02    0.469E-01
RMM:   8    -0.448045339601E+03   -0.78464E-03   -0.16404E-03   745   0.102E-01    0.624E-01
RMM:   9    -0.448045135564E+03    0.20404E-03   -0.13640E-03   742   0.102E-01    0.589E-01
RMM:  10    -0.448044244395E+03    0.89117E-03   -0.67861E-04   743   0.764E-02    0.229E-01
RMM:  11    -0.448044337619E+03   -0.93224E-04   -0.55372E-04   743   0.611E-02    0.284E-01
RMM:  12    -0.448044332927E+03    0.46929E-05   -0.40196E-04   748   0.529E-02    0.261E-01
RMM:  13    -0.448044168565E+03    0.16436E-03   -0.21504E-04   747   0.421E-02    0.154E-01
RMM:  14    -0.448044108819E+03    0.59746E-04   -0.83190E-05   755   0.238E-02    0.738E-02
RMM:  15    -0.448044114179E+03   -0.53600E-05   -0.47143E-05   759   0.158E-02    0.803E-02
RMM:  16    -0.448044107910E+03    0.62689E-05   -0.26556E-05   745   0.132E-02    0.632E-02
RMM:  17    -0.448044098704E+03    0.92063E-05   -0.12181E-05   724   0.929E-03    0.318E-02
RMM:  18    -0.448044098143E+03    0.56125E-06   -0.69643E-06   610   0.597E-03
  12 F= -.46388258E+03 E0= -.46239491E+03  d E =-.297533E+01
       N       E                     dE             d eps       ncg     rms          rms(c)
DAV:   1    -0.448042794190E+03    0.13045E-02   -0.50684E+00   738   0.299E+00    0.495E-01
RMM:   2    -0.448067329632E+03   -0.24535E-01   -0.12831E-01   846   0.558E-01    0.215E+00
RMM:   3    -0.448059631806E+03    0.76978E-02   -0.13315E-02   749   0.288E-01    0.154E+00
RMM:   4    -0.448070775848E+03   -0.11144E-01   -0.13212E-02   753   0.276E-01    0.255E+00
RMM:   5    -0.448057979710E+03    0.12796E-01   -0.84817E-03   746   0.258E-01    0.121E+00
RMM:   6    -0.448053864499E+03    0.41152E-02   -0.36149E-03   743   0.179E-01    0.590E-01
RMM:   7    -0.448055034289E+03   -0.11698E-02   -0.32139E-03   745   0.144E-01    0.879E-01
RMM:   8    -0.448055661362E+03   -0.62707E-03   -0.34733E-03   745   0.154E-01    0.906E-01
RMM:   9    -0.448054152015E+03    0.15093E-02   -0.25778E-03   746   0.147E-01    0.614E-01
RMM:  10    -0.448053499374E+03    0.65264E-03   -0.15724E-03   744   0.111E-01    0.457E-01
RMM:  11    -0.448053776352E+03   -0.27698E-03   -0.12044E-03   745   0.889E-02    0.528E-01
RMM:  12    -0.448053335864E+03    0.44049E-03   -0.82629E-04   750   0.807E-02    0.360E-01
RMM:  13    -0.448052998749E+03    0.33712E-03   -0.31299E-04   749   0.508E-02    0.161E-01
RMM:  14    -0.448052979770E+03    0.18979E-04   -0.17904E-04   742   0.349E-02    0.146E-01
RMM:  15    -0.448052986062E+03   -0.62924E-05   -0.11760E-04   741   0.281E-02    0.143E-01
RMM:  16    -0.448052930871E+03    0.55191E-04   -0.61296E-05   750   0.229E-02    0.686E-02
RMM:  17    -0.448052918360E+03    0.12512E-04   -0.19679E-05   748   0.119E-02    0.361E-02
RMM:  18    -0.448052924131E+03   -0.57715E-05   -0.16852E-05   743   0.958E-03    0.495E-02
RMM:  19    -0.448052930093E+03   -0.59617E-05   -0.15714E-05   742   0.987E-03    0.565E-02
RMM:  20    -0.448052924841E+03    0.52520E-05   -0.10501E-05   728   0.908E-03    0.327E-02
RMM:  21    -0.448052924715E+03    0.12615E-06   -0.54695E-06   583   0.630E-03
  13 F= -.46389207E+03 E0= -.46240532E+03  d E =-.297351E+01
       N       E                     dE             d eps       ncg     rms          rms(c)
DAV:   1    -0.448045053984E+03    0.78709E-02   -0.13947E+00   738   0.153E+00    0.284E-01
RMM:   2    -0.448054832346E+03   -0.97784E-02   -0.39507E-02   787   0.314E-01    0.152E+00
RMM:   3    -0.448049970322E+03    0.48620E-02   -0.42331E-03   746   0.172E-01    0.858E-01
RMM:   4    -0.448052989682E+03   -0.30194E-02   -0.41800E-03   753   0.157E-01    0.136E+00
RMM:   5    -0.448050082659E+03    0.29070E-02   -0.31495E-03   747   0.154E-01    0.787E-01
RMM:   6    -0.448048268592E+03    0.18141E-02   -0.14875E-03   743   0.117E-01    0.357E-01
RMM:   7    -0.448048315512E+03   -0.46921E-04   -0.93263E-04   745   0.789E-02    0.382E-01
RMM:   8    -0.448048617132E+03   -0.30162E-03   -0.99461E-04   746   0.821E-02    0.462E-01
RMM:   9    -0.448048259029E+03    0.35810E-03   -0.72284E-04   746   0.764E-02    0.325E-01
RMM:  10    -0.448048062408E+03    0.19662E-03   -0.47163E-04   742   0.614E-02    0.230E-01
RMM:  11    -0.448048256427E+03   -0.19402E-03   -0.41636E-04   743   0.514E-02    0.351E-01
RMM:  12    -0.448048064721E+03    0.19171E-03   -0.29199E-04   746   0.479E-02    0.200E-01
RMM:  13    -0.448047978899E+03    0.85822E-04   -0.13755E-04   745   0.336E-02    0.143E-01
RMM:  14    -0.448047930609E+03    0.48290E-04   -0.55306E-05   739   0.197E-02    0.587E-02
RMM:  15    -0.448047945777E+03   -0.15168E-04   -0.35912E-05   742   0.147E-02    0.910E-02
RMM:  16    -0.448047937004E+03    0.87730E-05   -0.23584E-05   738   0.130E-02    0.664E-02
RMM:  17    -0.448047926700E+03    0.10305E-04   -0.11662E-05   729   0.981E-03    0.348E-02
RMM:  18    -0.448047925021E+03    0.16782E-05   -0.56417E-06   622   0.608E-03    0.202E-02
RMM:  19    -0.448047928159E+03   -0.31373E-05   -0.49698E-06   554   0.590E-03    0.311E-02
RMM:  20    -0.448047927236E+03    0.92300E-06   -0.31826E-06   471   0.571E-03
  14 F= -.46388668E+03 E0= -.46239948E+03  d E =-.297441E+01
       N       E                     dE             d eps       ncg     rms          rms(c)
DAV:   1    -0.448047008591E+03    0.91957E-03   -0.29135E-01   738   0.448E-01    0.227E-01
RMM:   2    -0.448049088748E+03   -0.20802E-02   -0.63500E-03   746   0.134E-01    0.863E-01
RMM:   3    -0.448048054406E+03    0.10343E-02   -0.18636E-03   762   0.107E-01    0.661E-01
RMM:   4    -0.448051205162E+03   -0.31508E-02   -0.25218E-03   753   0.123E-01    0.126E+00
RMM:   5    -0.448047987492E+03    0.32177E-02   -0.19315E-03   746   0.125E-01    0.562E-01
RMM:   6    -0.448047089712E+03    0.89778E-03   -0.88326E-04   746   0.879E-02    0.253E-01
RMM:   7    -0.448047544391E+03   -0.45468E-03   -0.86431E-04   744   0.751E-02    0.471E-01
RMM:   8    -0.448047325541E+03    0.21885E-03   -0.64972E-04   750   0.690E-02    0.363E-01
RMM:   9    -0.448047084217E+03    0.24132E-03   -0.43627E-04   744   0.594E-02    0.246E-01
RMM:  10    -0.448047024837E+03    0.59380E-04   -0.30047E-04   744   0.464E-02    0.199E-01
RMM:  11    -0.448047153876E+03   -0.12904E-03   -0.28427E-04   740   0.435E-02    0.291E-01
RMM:  12    -0.448046970009E+03    0.18387E-03   -0.15354E-04   750   0.363E-02    0.144E-01
RMM:  13    -0.448046914847E+03    0.55161E-04   -0.62646E-05   739   0.224E-02    0.705E-02
RMM:  14    -0.448046909624E+03    0.52231E-05   -0.25673E-05   739   0.128E-02    0.527E-02
RMM:  15    -0.448046922745E+03   -0.13121E-04   -0.23850E-05   742   0.121E-02    0.798E-02
RMM:  16    -0.448046908691E+03    0.14054E-04   -0.13329E-05   735   0.105E-02    0.366E-02
RMM:  17    -0.448046905986E+03    0.27049E-05   -0.42977E-06   534   0.601E-03    0.179E-02
RMM:  18    -0.448046907650E+03   -0.16641E-05   -0.29392E-06   445   0.497E-03    0.232E-02
RMM:  19    -0.448046908369E+03   -0.71940E-06   -0.22476E-06   432   0.488E-03
  15 F= -.46388578E+03 E0= -.46239856E+03  d E =-.297444E+01
       N       E                     dE             d eps       ncg     rms          rms(c)
DAV:   1    -0.448046862041E+03    0.45609E-04   -0.16046E-01   756   0.353E-01    0.213E-01
RMM:   2    -0.448047901995E+03   -0.10400E-02   -0.58294E-03   748   0.120E-01    0.680E-01
RMM:   3    -0.448047872541E+03    0.29453E-04   -0.15063E-03   754   0.962E-02    0.705E-01
RMM:   4    -0.448051339588E+03   -0.34670E-02   -0.27689E-03   755   0.129E-01    0.133E+00
RMM:   5    -0.448047177776E+03    0.41618E-02   -0.17854E-03   745   0.125E-01    0.441E-01
RMM:   6    -0.448046663948E+03    0.51383E-03   -0.70933E-04   746   0.771E-02    0.264E-01
RMM:   7    -0.448046990568E+03   -0.32662E-03   -0.71831E-04   746   0.682E-02    0.427E-01
RMM:   8    -0.448046760895E+03    0.22967E-03   -0.50516E-04   751   0.616E-02    0.305E-01
RMM:   9    -0.448046583066E+03    0.17783E-03   -0.37732E-04   744   0.549E-02    0.205E-01
RMM:  10    -0.448046582310E+03    0.75563E-06   -0.26077E-04   744   0.432E-02    0.207E-01
RMM:  11    -0.448046678769E+03   -0.96459E-04   -0.24067E-04   742   0.404E-02    0.272E-01
RMM:  12    -0.448046489610E+03    0.18916E-03   -0.12849E-04   749   0.345E-02    0.113E-01
RMM:  13    -0.448046459538E+03    0.30072E-04   -0.35811E-05   739   0.162E-02    0.536E-02
RMM:  14    -0.448046464858E+03   -0.53192E-05   -0.24278E-05   738   0.123E-02    0.651E-02
RMM:  15    -0.448046464481E+03    0.37683E-06   -0.18465E-05   742   0.109E-02    0.588E-02
RMM:  16    -0.448046455488E+03    0.89929E-05   -0.10317E-05   731   0.912E-03    0.286E-02
RMM:  17    -0.448046453736E+03    0.17516E-05   -0.29620E-06   462   0.491E-03    0.151E-02
RMM:  18    -0.448046454555E+03   -0.81871E-06   -0.20838E-06   397   0.434E-03
  16 F= -.46388534E+03 E0= -.46239814E+03  d E =-.297440E+01
       N       E                     dE             d eps       ncg     rms          rms(c)
DAV:   1    -0.448047525901E+03   -0.10722E-02   -0.29830E-01   756   0.471E-01    0.236E-01
RMM:   2    -0.448048419383E+03   -0.89348E-03   -0.87570E-03   750   0.137E-01    0.550E-01
RMM:   3    -0.448049766061E+03   -0.13467E-02   -0.22179E-03   755   0.103E-01    0.890E-01
RMM:   4    -0.448053658775E+03   -0.38927E-02   -0.36153E-03   747   0.147E-01    0.149E+00
RMM:   5    -0.448048311663E+03    0.53471E-02   -0.23106E-03   746   0.142E-01    0.448E-01
RMM:   6    -0.448047882783E+03    0.42888E-03   -0.96723E-04   743   0.859E-02    0.339E-01
RMM:   7    -0.448048221192E+03   -0.33841E-03   -0.10758E-03   746   0.825E-02    0.457E-01
RMM:   8    -0.448047984093E+03    0.23710E-03   -0.71382E-04   753   0.735E-02    0.369E-01
RMM:   9    -0.448047704504E+03    0.27959E-03   -0.48050E-04   747   0.617E-02    0.227E-01
RMM:  10    -0.448047793234E+03   -0.88730E-04   -0.37555E-04   742   0.501E-02    0.287E-01
RMM:  11    -0.448047832380E+03   -0.39146E-04   -0.32621E-04   744   0.472E-02    0.303E-01
RMM:  12    -0.448047597016E+03    0.23536E-03   -0.16804E-04   749   0.389E-02    0.120E-01
RMM:  13    -0.448047559290E+03    0.37726E-04   -0.55098E-05   739   0.200E-02    0.616E-02
RMM:  14    -0.448047568121E+03   -0.88312E-05   -0.33355E-05   740   0.141E-02    0.795E-02
RMM:  15    -0.448047567049E+03    0.10720E-05   -0.27553E-05   745   0.133E-02    0.717E-02
RMM:  16    -0.448047554395E+03    0.12654E-04   -0.13323E-05   736   0.104E-02    0.325E-02
RMM:  17    -0.448047553157E+03    0.12381E-05   -0.60715E-06   623   0.644E-03    0.233E-02
RMM:  18    -0.448047554241E+03   -0.10841E-05   -0.34971E-06   488   0.516E-03    0.260E-02
RMM:  19    -0.448047554340E+03   -0.98982E-07   -0.27705E-06   448   0.516E-03
  17 F= -.46388630E+03 E0= -.46239906E+03  d E =-.297447E+01
       N       E                     dE             d eps       ncg     rms          rms(c)
DAV:   1    -0.448048585588E+03   -0.10313E-02   -0.13402E-01   747   0.319E-01    0.111E-01
RMM:   2    -0.448049118438E+03   -0.53285E-03   -0.24760E-03   747   0.812E-02    0.324E-01
RMM:   3    -0.448048971068E+03    0.14737E-03   -0.42295E-04   745   0.501E-02    0.243E-01
RMM:   4    -0.448050380777E+03   -0.14097E-02   -0.68069E-04   751   0.640E-02    0.754E-01
RMM:   5    -0.448049331758E+03    0.10490E-02   -0.47034E-04   744   0.604E-02    0.385E-01
RMM:   6    -0.448048957211E+03    0.37455E-03   -0.29978E-04   739   0.501E-02    0.175E-01
RMM:   7    -0.448048976644E+03   -0.19434E-04   -0.23837E-04   739   0.404E-02    0.196E-01
RMM:   8    -0.448048998749E+03   -0.22105E-04   -0.17980E-04   743   0.349E-02    0.203E-01
RMM:   9    -0.448048917839E+03    0.80910E-04   -0.11563E-04   743   0.303E-02    0.141E-01
RMM:  10    -0.448048873642E+03    0.44197E-04   -0.48742E-05   735   0.196E-02    0.716E-02
RMM:  11    -0.448048888115E+03   -0.14473E-04   -0.44073E-05   732   0.170E-02    0.973E-02
RMM:  12    -0.448048878595E+03    0.95199E-05   -0.26952E-05   736   0.141E-02    0.744E-02
RMM:  13    -0.448048863517E+03    0.15077E-04   -0.14506E-05   729   0.112E-02    0.373E-02
RMM:  14    -0.448048860311E+03    0.32060E-05   -0.33740E-06   490   0.521E-03    0.163E-02
RMM:  15    -0.448048861980E+03   -0.16690E-05   -0.27465E-06   441   0.475E-03    0.240E-02
RMM:  16    -0.448048862532E+03   -0.55177E-06   -0.24483E-06   434   0.501E-03
  18 F= -.46388736E+03 E0= -.46240013E+03  d E =-.297445E+01
       N       E                     dE             d eps       ncg     rms          rms(c)
DAV:   1    -0.448048291254E+03    0.57073E-03   -0.27665E-01   765   0.461E-01    0.189E-01
RMM:   2    -0.448051273918E+03   -0.29827E-02   -0.63441E-03   744   0.148E-01    0.953E-01
RMM:   3    -0.448049220446E+03    0.20535E-02   -0.13127E-03   741   0.953E-02    0.480E-01
RMM:   4    -0.448050421218E+03   -0.12008E-02   -0.12455E-03   747   0.857E-02    0.828E-01
RMM:   5    -0.448049658273E+03    0.76295E-03   -0.12553E-03   744   0.972E-02    0.553E-01
RMM:   6    -0.448048816942E+03    0.84133E-03   -0.64751E-04   742   0.777E-02    0.244E-01
RMM:   7    -0.448049014179E+03   -0.19724E-03   -0.59055E-04   741   0.635E-02    0.366E-01
RMM:   8    -0.448049011877E+03    0.23014E-05   -0.51303E-04   747   0.595E-02    0.326E-01
RMM:   9    -0.448048791889E+03    0.21999E-03   -0.37581E-04   745   0.559E-02    0.212E-01
RMM:  10    -0.448048708852E+03    0.83038E-04   -0.16346E-04   740   0.356E-02    0.144E-01
RMM:  11    -0.448048738381E+03   -0.29529E-04   -0.13288E-04   738   0.297E-02    0.171E-01
RMM:  12    -0.448048707328E+03    0.31053E-04   -0.75672E-05   743   0.240E-02    0.125E-01
RMM:  13    -0.448048668397E+03    0.38931E-04   -0.39801E-05   743   0.184E-02    0.639E-02
RMM:  14    -0.448048660235E+03    0.81624E-05   -0.11772E-05   730   0.927E-03    0.308E-02
RMM:  15    -0.448048666366E+03   -0.61315E-05   -0.85511E-06   688   0.735E-03    0.441E-02
RMM:  16    -0.448048671190E+03   -0.48238E-05   -0.66023E-06   630   0.704E-03    0.336E-02
RMM:  17    -0.448048671196E+03   -0.60099E-08   -0.33603E-06   483   0.586E-03
  19 F= -.46388780E+03 E0= -.46240057E+03  d E =-.297446E+01
