 vasp.5.4.4.18Apr17-6-g9f103f2a35 (build Dec 15 2018 21:27:54) gamma-only       
  
 executed on             LinuxIFC date 2022.02.19  17:51:14
 running on   72 total cores
 distrk:  each k-point on   72 cores,    1 groups
 distr:  one band on NCORES_PER_BAND=  24 cores,    3 groups


--------------------------------------------------------------------------------------------------------


 INCAR:
 POTCAR:    PAW_PBE Ni 02Aug2007                  
 POTCAR:    PAW_PBE Fe 06Sep2000                  
 POTCAR:    PAW_PBE O 08Apr2002                   
 POTCAR:    PAW_PBE H 15Jun2001                   

 ----------------------------------------------------------------------------- 
|                                                                             |
|           W    W    AA    RRRRR   N    N  II  N    N   GGGG   !!!           |
|           W    W   A  A   R    R  NN   N  II  NN   N  G    G  !!!           |
|           W    W  A    A  R    R  N N  N  II  N N  N  G       !!!           |
|           W WW W  AAAAAA  RRRRR   N  N N  II  N  N N  G  GGG   !            |
|           WW  WW  A    A  R   R   N   NN  II  N   NN  G    G                |
|           W    W  A    A  R    R  N    N  II  N    N   GGGG   !!!           |
|                                                                             |
|      For optimal performance we recommend to set                            |
|        NCORE= 4 - approx SQRT( number of cores)                             |
|      NCORE specifies how many cores store one orbital (NPAR=cpu/NCORE).     |
|      This setting can  greatly improve the performance of VASP for DFT.     |
|      The default,   NCORE=1            might be grossly inefficient         |
|      on modern multi-core architectures or massively parallel machines.     |
|      Do your own testing !!!!                                               |
|      Unfortunately you need to use the default for GW and RPA calculations. |
|      (for HF NCORE is supported but not extensively tested yet)             |
|                                                                             |
 ----------------------------------------------------------------------------- 

 POTCAR:    PAW_PBE Ni 02Aug2007                  
   VRHFIN =Ni:                                                                  
   LEXCH  = PE                                                                  
   EATOM  =  1077.6739 eV,   79.2068 Ry                                         
                                                                                
   TITEL  = PAW_PBE Ni 02Aug2007                                                
   LULTRA =        F    use ultrasoft PP ?                                      
   IUNSCR =        1    unscreen: 0-lin 1-nonlin 2-no                           
   RPACOR =    2.000    partial core radius                                     
   POMASS =   58.690; ZVAL   =   10.000    mass and valenz                      
   RCORE  =    2.300    outmost cutoff radius                                   
   RWIGS  =    2.430; RWIGS  =    1.286    wigner-seitz radius (au A)           
   ENMAX  =  269.532; ENMIN  =  202.149 eV                                      
   RCLOC  =    1.201    cutoff for local pot                                    
   LCOR   =        T    correct aug charges                                     
   LPAW   =        T    paw PP                                                  
   EAUG   =  544.565                                                            
   DEXC   =    0.000                                                            
   RMAX   =    2.357    core radius for proj-oper                               
   RAUG   =    1.300    factor for augmentation sphere                          
   RDEP   =    2.390    radius for radial grids                                 
   RDEPT  =    1.838    core radius for aug-charge                              
                                                                                
   Atomic configuration                                                         
    9 entries                                                                   
     n  l   j            E        occ.                                          
     1  0  0.50     -8206.4253   2.0000                                         
     2  0  0.50      -976.1748   2.0000                                         
     2  1  1.50      -839.0571   6.0000                                         
     3  0  0.50      -105.9991   2.0000                                         
     3  1  1.50       -66.4603   6.0000                                         
     3  2  2.50        -4.6458   9.0000                                         
     4  0  0.50        -4.4926   1.0000                                         
     4  1  1.50        -4.0817   0.0000                                         
     4  3  2.50        -1.3606   0.0000                                         
   Description                                                                  
     l       E           TYP  RCUT    TYP  RCUT                                 
     2     -4.6457903     23  2.300                                             
     2     -6.0063729     23  2.300                                             
     0     -4.4925590     23  2.300                                             
     0      5.0102601     23  2.300                                             
     1     -2.7211652     23  2.300                                             
     1     16.5183231     23  2.300                                             
  local pseudopotential read in
  partial core-charges read in
  partial kinetic energy density read in
  atomic valenz-charges read in
  non local Contribution for L=           2  read in
    real space projection operators read in
  non local Contribution for L=           2  read in
    real space projection operators read in
  non local Contribution for L=           0  read in
    real space projection operators read in
  non local Contribution for L=           0  read in
    real space projection operators read in
  non local Contribution for L=           1  read in
    real space projection operators read in
  non local Contribution for L=           1  read in
    real space projection operators read in
    PAW grid and wavefunctions read in
 
   number of l-projection  operators is LMAX  =           6
   number of lm-projection operators is LMMAX =          18
 
 POTCAR:    PAW_PBE Fe 06Sep2000                  
   VRHFIN =Fe:  d7 s1                                                           
   LEXCH  = PE                                                                  
   EATOM  =   594.3153 eV,   43.6809 Ry                                         
                                                                                
   TITEL  = PAW_PBE Fe 06Sep2000                                                
   LULTRA =        F    use ultrasoft PP ?                                      
   IUNSCR =        1    unscreen: 0-lin 1-nonlin 2-no                           
   RPACOR =    2.000    partial core radius                                     
   POMASS =   55.847; ZVAL   =    8.000    mass and valenz                      
   RCORE  =    2.300    outmost cutoff radius                                   
   RWIGS  =    2.460; RWIGS  =    1.302    wigner-seitz radius (au A)           
   ENMAX  =  267.882; ENMIN  =  200.911 eV                                      
   RCLOC  =    1.701    cutoff for local pot                                    
   LCOR   =        T    correct aug charges                                     
   LPAW   =        T    paw PP                                                  
   EAUG   =  511.368                                                            
   DEXC   =    0.000                                                            
   RMAX   =    2.356    core radius for proj-oper                               
   RAUG   =    1.300    factor for augmentation sphere                          
   RDEP   =    2.442    radius for radial grids                                 
   RDEPT  =    1.890    core radius for aug-charge                              
                                                                                
   Atomic configuration                                                         
    9 entries                                                                   
     n  l   j            E        occ.                                          
     1  0  0.50     -6993.8440   2.0000                                         
     2  0  0.50      -814.6047   2.0000                                         
     2  1  1.50      -693.3689   6.0000                                         
     3  0  0.50       -89.4732   2.0000                                         
     3  1  1.50       -55.6373   6.0000                                         
     3  2  2.50        -3.8151   7.0000                                         
     4  0  0.50        -4.2551   1.0000                                         
     4  1  1.50        -3.4015   0.0000                                         
     4  3  2.50        -1.3606   0.0000                                         
   Description                                                                  
     l       E           TYP  RCUT    TYP  RCUT                                 
     2     -3.8151135     23  2.300                                             
     2     -5.1756961     23  2.300                                             
     0     -4.2550963     23  2.300                                             
     0      7.2035603     23  2.300                                             
     1     -2.7211652     23  2.300                                             
     1     18.4316424     23  2.300                                             
  local pseudopotential read in
  partial core-charges read in
  partial kinetic energy density read in
  atomic valenz-charges read in
  non local Contribution for L=           2  read in
    real space projection operators read in
  non local Contribution for L=           2  read in
    real space projection operators read in
  non local Contribution for L=           0  read in
    real space projection operators read in
  non local Contribution for L=           0  read in
    real space projection operators read in
  non local Contribution for L=           1  read in
    real space projection operators read in
  non local Contribution for L=           1  read in
    real space projection operators read in
    PAW grid and wavefunctions read in
 
   number of l-projection  operators is LMAX  =           6
   number of lm-projection operators is LMMAX =          18
 
 POTCAR:    PAW_PBE O 08Apr2002                   
   VRHFIN =O: s2p4                                                              
   LEXCH  = PE                                                                  
   EATOM  =   432.3788 eV,   31.7789 Ry                                         
                                                                                
   TITEL  = PAW_PBE O 08Apr2002                                                 
   LULTRA =        F    use ultrasoft PP ?                                      
   IUNSCR =        1    unscreen: 0-lin 1-nonlin 2-no                           
   RPACOR =    1.200    partial core radius                                     
   POMASS =   16.000; ZVAL   =    6.000    mass and valenz                      
   RCORE  =    1.520    outmost cutoff radius                                   
   RWIGS  =    1.550; RWIGS  =    0.820    wigner-seitz radius (au A)           
   ENMAX  =  400.000; ENMIN  =  300.000 eV                                      
   ICORE  =        2    local potential                                         
   LCOR   =        T    correct aug charges                                     
   LPAW   =        T    paw PP                                                  
   EAUG   =  605.392                                                            
   DEXC   =    0.000                                                            
   RMAX   =    1.553    core radius for proj-oper                               
   RAUG   =    1.300    factor for augmentation sphere                          
   RDEP   =    1.550    radius for radial grids                                 
   RDEPT  =    1.329    core radius for aug-charge                              
                                                                                
   Atomic configuration                                                         
    4 entries                                                                   
     n  l   j            E        occ.                                          
     1  0  0.50      -514.6923   2.0000                                         
     2  0  0.50       -23.9615   2.0000                                         
     2  1  0.50        -9.0305   4.0000                                         
     3  2  1.50        -9.5241   0.0000                                         
   Description                                                                  
     l       E           TYP  RCUT    TYP  RCUT                                 
     0    -23.9615318     23  1.200                                             
     0     -9.5240782     23  1.200                                             
     1     -9.0304911     23  1.520                                             
     1      8.1634956     23  1.520                                             
     2     -9.5240782      7  1.500                                             
  local pseudopotential read in
  partial core-charges read in
  partial kinetic energy density read in
  kinetic energy density of atom read in
  atomic valenz-charges read in
  non local Contribution for L=           0  read in
    real space projection operators read in
  non local Contribution for L=           0  read in
    real space projection operators read in
  non local Contribution for L=           1  read in
    real space projection operators read in
  non local Contribution for L=           1  read in
    real space projection operators read in
    PAW grid and wavefunctions read in
 
   number of l-projection  operators is LMAX  =           4
   number of lm-projection operators is LMMAX =           8
 
 POTCAR:    PAW_PBE H 15Jun2001                   
   VRHFIN =H: ultrasoft test                                                    
   LEXCH  = PE                                                                  
   EATOM  =    12.4884 eV,    0.9179 Ry                                         
                                                                                
   TITEL  = PAW_PBE H 15Jun2001                                                 
   LULTRA =        F    use ultrasoft PP ?                                      
   IUNSCR =        0    unscreen: 0-lin 1-nonlin 2-no                           
   RPACOR =    0.000    partial core radius                                     
   POMASS =    1.000; ZVAL   =    1.000    mass and valenz                      
   RCORE  =    1.100    outmost cutoff radius                                   
   RWIGS  =    0.700; RWIGS  =    0.370    wigner-seitz radius (au A)           
   ENMAX  =  250.000; ENMIN  =  200.000 eV                                      
   RCLOC  =    0.701    cutoff for local pot                                    
   LCOR   =        T    correct aug charges                                     
   LPAW   =        T    paw PP                                                  
   EAUG   =  400.000                                                            
   RMAX   =    1.123    core radius for proj-oper                               
   RAUG   =    1.200    factor for augmentation sphere                          
   RDEP   =    1.112    radius for radial grids                                 
   RDEPT  =    0.926    core radius for aug-charge                              
                                                                                
   Atomic configuration                                                         
    2 entries                                                                   
     n  l   j            E        occ.                                          
     1  0  0.50        -6.4927   1.0000                                         
     2  1  0.50        -3.4015   0.0000                                         
   Description                                                                  
     l       E           TYP  RCUT    TYP  RCUT                                 
     0     -6.4927494     23  1.100                                             
     0      6.8029130     23  1.100                                             
     1     -4.0817478     23  1.100                                             
  local pseudopotential read in
  atomic valenz-charges read in
  non local Contribution for L=           0  read in
    real space projection operators read in
  non local Contribution for L=           0  read in
    real space projection operators read in
  non local Contribution for L=           1  read in
    real space projection operators read in
    PAW grid and wavefunctions read in
 
   number of l-projection  operators is LMAX  =           3
   number of lm-projection operators is LMMAX =           5
 
 Optimization of the real space projectors (new method)

 maximal supplied QI-value         = 16.25
 optimisation between [QCUT,QGAM] = [ 11.54, 23.24] = [ 37.28,151.24] Ry 
 Optimized for a Real-space Cutoff    1.45 Angstroem

   l    n(q)    QCUT    max X(q) W(low)/X(q) W(high)/X(q)  e(spline) 
   2      9    11.539    60.317    0.19E-03    0.47E-04    0.16E-06
   2      9    11.539    55.921    0.19E-03    0.48E-04    0.16E-06
   0     10    11.539    51.690    0.80E-04    0.50E-04    0.24E-06
   0     10    11.539    30.015    0.73E-04    0.45E-04    0.22E-06
   1     10    11.539    18.849    0.87E-04    0.16E-03    0.71E-07
   1     10    11.539    14.624    0.73E-04    0.13E-03    0.64E-07
 Optimization of the real space projectors (new method)

 maximal supplied QI-value         = 16.25
 optimisation between [QCUT,QGAM] = [ 11.54, 23.24] = [ 37.28,151.24] Ry 
 Optimized for a Real-space Cutoff    1.53 Angstroem

   l    n(q)    QCUT    max X(q) W(low)/X(q) W(high)/X(q)  e(spline) 
   2     10    11.539    80.901    0.11E-03    0.14E-03    0.21E-06
   2     10    11.539    75.754    0.11E-03    0.14E-03    0.22E-06
   0     11    11.539    58.752    0.52E-04    0.18E-04    0.33E-06
   0     11    11.539    30.679    0.44E-04    0.16E-04    0.30E-06
   1     10    11.539    17.977    0.53E-04    0.29E-04    0.13E-06
   1     10    11.539    13.559    0.44E-04    0.25E-04    0.11E-06
 Optimization of the real space projectors (new method)

 maximal supplied QI-value         = 24.76
 optimisation between [QCUT,QGAM] = [ 11.64, 23.27] = [ 37.91,151.63] Ry 
 Optimized for a Real-space Cutoff    1.14 Angstroem

   l    n(q)    QCUT    max X(q) W(low)/X(q) W(high)/X(q)  e(spline) 
   0      8    11.635    20.381    0.10E-03    0.33E-03    0.24E-06
   0      8    11.635    15.268    0.11E-03    0.35E-03    0.26E-06
   1      7    11.635     5.964    0.24E-03    0.31E-03    0.30E-06
   1      7    11.635     5.382    0.22E-03    0.25E-03    0.26E-06
 Optimization of the real space projectors (new method)

 maximal supplied QI-value         = 34.20
 optimisation between [QCUT,QGAM] = [ 11.63, 23.26] = [ 37.87,151.49] Ry 
 Optimized for a Real-space Cutoff    1.21 Angstroem

   l    n(q)    QCUT    max X(q) W(low)/X(q) W(high)/X(q)  e(spline) 
   0      8    11.629    19.460    0.17E-03    0.34E-03    0.21E-06
   0      8    11.629    12.209    0.16E-03    0.33E-03    0.21E-06
   1      8    11.629     4.655    0.18E-03    0.16E-03    0.26E-06
  PAW_PBE Ni 02Aug2007                  :
 energy of atom  1       EATOM=-1077.6739
 kinetic energy error for atom=    0.0030 (will be added to EATOM!!)
  PAW_PBE Fe 06Sep2000                  :
 energy of atom  2       EATOM= -594.3153
 kinetic energy error for atom=    0.0026 (will be added to EATOM!!)
  PAW_PBE O 08Apr2002                   :
 energy of atom  3       EATOM= -432.3788
 kinetic energy error for atom=    0.0208 (will be added to EATOM!!)
  PAW_PBE H 15Jun2001                   :
 energy of atom  4       EATOM=  -12.4884
 kinetic energy error for atom=    0.0014 (will be added to EATOM!!)
 
 
 POSCAR: POSCAR                                  
  positions in direct lattice
  velocities in cartesian coordinates
 exchange correlation table for  LEXCH =        8
   RHO(1)=    0.500       N(1)  =     2000
   RHO(2)=  100.500       N(2)  =     4000

 VTST: version 3.2, (02/03/18)

 CHAIN: initializing optimizer
 
 OPT: Using VASP Dynamics algorithm
 CHAIN: Read ICHAIN            0
 
 POSCAR: POSCAR                                  
  positions in direct lattice
  velocities in cartesian coordinates
 


--------------------------------------------------------------------------------------------------------


 ion  position               nearest neighbor table
   1  0.999  0.001  0.191-  35 2.44  59 2.48  23 2.50  32 2.50   5 2.52  40 2.52  37 2.52   2 2.53
                             4 2.53  21 2.54  34 2.54  62 2.57
   2  0.248  0.999  0.192-  59 2.45  50 2.47   6 2.48  36 2.48  37 2.50   3 2.51  28 2.52   5 2.52
                            60 2.52  21 2.53   1 2.53   8 2.56
   3  0.499  0.002  0.192-  39 2.45  36 2.49  60 2.50  30 2.50  34 2.51   2 2.51   8 2.52  11 2.52
                             7 2.53  61 2.53  50 2.54  51 2.54
   4  0.998  0.251  0.192-  35 2.46  43 2.49  42 2.49  19 2.50  34 2.50  13 2.50   7 2.53   1 2.53
                            40 2.53  10 2.53   5 2.55  46 2.55
   5  0.249  0.249  0.191-  45 2.48  36 2.48  35 2.49  37 2.50  46 2.50   6 2.51   1 2.52  42 2.52
                             2 2.52  16 2.54   4 2.55  44 2.55
   6  0.333  0.164  0.287-  38 2.44  36 2.46  17 2.46   2 2.48   9 2.48   5 2.51  45 2.52  60 2.53
                            59 2.53  15 2.55  39 2.55  35 2.57
   7  0.749  0.253  0.193-  39 2.42  18 2.46  14 2.49  48 2.49  13 2.51  34 2.51   4 2.53   3 2.53
                            10 2.53  11 2.54  36 2.55  19 2.55
   8  0.418  0.084  0.094-  37 2.49  36 2.51  16 2.51   3 2.52  11 2.52  30 2.53  28 2.53  48 2.56
                             2 2.56
   9  0.418  0.085  0.382-  68 1.84  38 2.42  17 2.46   6 2.48  60 2.50  12 2.52  49 2.52  29 2.53
                            39 2.53  31 2.56
  10  0.832  0.165  0.289-  12 2.45  41 2.45  39 2.48  34 2.48  20 2.48  43 2.50  35 2.50  62 2.53
                             7 2.53   4 2.53  18 2.54  61 2.58
  11  0.668  0.085  0.096-  34 2.51  40 2.51  48 2.51   8 2.52   3 2.52  19 2.53  30 2.54  63 2.54
                             7 2.54
  12  0.666  0.085  0.383-  68 1.85  10 2.45  20 2.49  41 2.49  39 2.50   9 2.52  49 2.53  64 2.54
                            31 2.56  61 2.58
  13  0.999  0.499  0.193-  43 2.45  22 2.47  18 2.49  53 2.50   4 2.50  42 2.51   7 2.51  19 2.52
                            50 2.52  21 2.53  14 2.53  26 2.55
  14  0.748  0.499  0.192-  15 2.47  44 2.48  18 2.49   7 2.49  48 2.49  56 2.50  57 2.52  26 2.52
                            21 2.52  23 2.53  13 2.53  36 2.57
  15  0.584  0.419  0.287-  49 2.44  56 2.45  14 2.47  44 2.48  17 2.48  45 2.49  18 2.50  36 2.52
                             6 2.55  55 2.57  39 2.57  58 2.70
  16  0.420  0.333  0.094-  36 2.51   8 2.51  37 2.52  57 2.52  44 2.52  46 2.53  24 2.54  48 2.54
                             5 2.54
  17  0.416  0.329  0.381-  66 1.84  38 2.43   6 2.46   9 2.46  15 2.48  45 2.50  49 2.50  47 2.55
                            25 2.58  58 2.60
  18  0.830  0.416  0.287-  49 2.41   7 2.46  14 2.49  56 2.49  43 2.49  13 2.49  39 2.49  15 2.50
                            27 2.52  22 2.53  20 2.53  10 2.54
  19  0.919  0.335  0.096-  48 2.49   4 2.50  40 2.51  53 2.51  13 2.52  11 2.53  26 2.54  46 2.54
                             7 2.55
  20  0.913  0.331  0.384-  67 1.87  41 2.47  10 2.48  12 2.49  43 2.50  49 2.52  18 2.53  47 2.54
                            27 2.58  54 2.60
  21  0.998  0.749  0.193-  59 2.44  50 2.48  23 2.48  22 2.48  32 2.50  26 2.52  14 2.52   2 2.53
                            13 2.53  56 2.53   1 2.54  28 2.55
  22  0.081  0.665  0.287-  29 2.43  50 2.45  13 2.47  21 2.48  43 2.49  54 2.52  59 2.53  18 2.53
                            60 2.54  56 2.55  27 2.55  52 2.62
  23  0.753  0.752  0.192-  62 2.45  21 2.48  55 2.49  63 2.49   1 2.50  32 2.51  57 2.52  56 2.52
                            14 2.53  44 2.54  51 2.57  34 2.58
  24  0.417  0.584  0.096-  46 2.49  44 2.50  51 2.51  57 2.52  30 2.52  63 2.53  16 2.54  42 2.56
                            53 2.57
  25  0.410  0.581  0.382-  66 1.88  52 2.45  54 2.47  31 2.50  47 2.50  45 2.51  55 2.55  58 2.56
                            64 2.56  17 2.58
  26  0.916  0.585  0.095-  48 2.48  32 2.48  57 2.50  53 2.51  21 2.52  14 2.52  28 2.53  19 2.54
                            13 2.55
  27  0.909  0.584  0.384-  67 1.89  56 2.44  58 2.48  49 2.48  33 2.49  18 2.52  22 2.55  29 2.58
                            20 2.58  54 2.61
  28  0.167  0.835  0.095-  32 2.48  37 2.49  53 2.50   2 2.52  50 2.53   8 2.53  26 2.53  30 2.54
                            21 2.55
  29  0.167  0.836  0.377-  60 2.40  22 2.43  59 2.44  38 2.47  33 2.50  54 2.51   9 2.53  31 2.53
                            27 2.58
  30  0.417  0.833  0.097-  51 2.49   3 2.50  53 2.52  24 2.52   8 2.53  11 2.54  28 2.54  63 2.54
                            50 2.55
  31  0.414  0.830  0.385-  68 1.86  54 2.45  25 2.50  60 2.50  52 2.52  64 2.53  29 2.53   9 2.56
                            61 2.56  12 2.56
  32  0.920  0.833  0.095-  28 2.48  26 2.48   1 2.50  21 2.50  23 2.51  57 2.53  37 2.54  63 2.54
                            40 2.57
  33  0.919  0.835  0.380-  65 1.94  56 2.46  59 2.47  62 2.49  27 2.49  29 2.50  58 2.52  64 2.55
                            41 2.56  38 2.58
  34  0.749  0.005  0.193-  61 2.46  62 2.47  10 2.48   4 2.50  11 2.51   7 2.51   3 2.51  63 2.54
                             1 2.54  51 2.55  40 2.57  23 2.58
  35  0.077  0.160  0.285-   1 2.44   4 2.46  47 2.48   5 2.49  59 2.50  10 2.50  41 2.55  62 2.55
                             6 2.57  38 2.58  43 2.58  45 2.60
  36  0.493  0.245  0.192-   6 2.46   5 2.48   2 2.48   3 2.49  39 2.50  16 2.51   8 2.51  44 2.52
                            15 2.52   7 2.55  14 2.57  48 2.57
  37  0.171  0.083  0.095-  28 2.49   8 2.49   2 2.50   5 2.50  16 2.52   1 2.52  32 2.54  46 2.57
                            40 2.58
  38  0.178  0.086  0.382-  65 1.83   9 2.42  17 2.43   6 2.44  29 2.47  47 2.55  59 2.56  33 2.58
                            35 2.58  41 2.67
  39  0.586  0.166  0.286-   7 2.42   3 2.45  49 2.47  10 2.48  18 2.49  12 2.50  36 2.50   9 2.53
                            60 2.54   6 2.55  15 2.57  61 2.59
  40  0.917  0.086  0.094-  19 2.51  11 2.51   1 2.52  63 2.53   4 2.53  46 2.55  34 2.57  32 2.57
                            37 2.58
  41  0.914  0.086  0.384-  65 1.85  10 2.45  20 2.47  12 2.49  47 2.51  64 2.53  35 2.55  33 2.56
                            62 2.58  38 2.67
  42  0.246  0.497  0.194-  45 2.46  52 2.48  43 2.49   4 2.49  13 2.51  46 2.51   5 2.52  53 2.54
                            51 2.55  24 2.56  44 2.58  50 2.59
  43  0.076  0.416  0.288-  47 2.44  13 2.45  42 2.49  18 2.49  22 2.49   4 2.49  10 2.50  20 2.50
                            54 2.55  35 2.58  45 2.62  52 2.64
  44  0.503  0.500  0.191-  15 2.48  14 2.48  45 2.48  57 2.49  24 2.50  55 2.52  36 2.52  16 2.52
                            23 2.54   5 2.55  51 2.55  42 2.58
  45  0.336  0.415  0.285-  42 2.46  47 2.47   5 2.48  44 2.48  15 2.49  17 2.50  25 2.51   6 2.52
                            52 2.54  55 2.55  35 2.60  43 2.62
  46  0.171  0.337  0.096-  24 2.49   5 2.50  42 2.51  16 2.53  19 2.54   4 2.55  53 2.55  40 2.55
                            37 2.57
  47  0.165  0.331  0.378-  43 2.44  45 2.47  35 2.48  25 2.50  41 2.51  20 2.54  38 2.55  17 2.55
                            54 2.58
  48  0.673  0.336  0.096-  26 2.48  19 2.49  14 2.49   7 2.49  11 2.51  57 2.53  16 2.54   8 2.56
                            36 2.57
  49  0.667  0.335  0.378-  18 2.41  15 2.44  39 2.47  27 2.48  17 2.50  20 2.52   9 2.52  12 2.53
                            58 2.59
  50  0.245  0.753  0.193-  22 2.45  60 2.46   2 2.47  21 2.48  53 2.51  52 2.52  13 2.52  28 2.53
                             3 2.54  30 2.55  51 2.57  42 2.59
  51  0.498  0.750  0.193-  52 2.40  61 2.41  55 2.43  30 2.49  24 2.51  63 2.52   3 2.54  44 2.55
                            34 2.55  42 2.55  23 2.57  50 2.57
  52  0.344  0.671  0.286-  61 2.39  51 2.40  55 2.41  25 2.45  42 2.48  60 2.51  31 2.52  50 2.52
                            45 2.54  54 2.58  22 2.62  43 2.64
  53  0.165  0.586  0.097-  13 2.50  28 2.50  50 2.51  26 2.51  19 2.51  30 2.52  42 2.54  46 2.55
                            24 2.57
  54  0.170  0.589  0.384-  67 1.82  31 2.45  25 2.47  29 2.51  22 2.52  43 2.55  52 2.58  47 2.58
                            20 2.60  27 2.61
  55  0.584  0.673  0.285-  61 2.37  62 2.40  52 2.41  51 2.43  23 2.49  64 2.52  44 2.52  56 2.52
                            25 2.55  45 2.55  15 2.57  58 2.69
  56  0.827  0.660  0.289-  27 2.44  15 2.45  33 2.46  18 2.49  14 2.50  23 2.52  55 2.52  21 2.53
                            22 2.55  62 2.55  59 2.58  58 2.60
  57  0.668  0.584  0.095-  44 2.49  26 2.50  63 2.51  23 2.52  14 2.52  16 2.52  24 2.52  32 2.53
                            48 2.53
  58  0.667  0.591  0.392-  66 1.89  70 2.35  64 2.46  27 2.48  33 2.52  25 2.56  49 2.59  56 2.60
                            17 2.60  55 2.69  15 2.70
  59  0.081  0.915  0.284-  21 2.44  29 2.44   2 2.45  33 2.47   1 2.48  35 2.50  22 2.53   6 2.53
                            38 2.56  60 2.57  56 2.58  62 2.60
  60  0.335  0.915  0.288-  29 2.40  50 2.46   3 2.50   9 2.50  31 2.50  52 2.51   2 2.52  61 2.53
                             6 2.53  39 2.54  22 2.54  59 2.57
  61  0.581  0.906  0.286-  55 2.37  52 2.39  51 2.41  62 2.41  34 2.46  64 2.50  60 2.53   3 2.53
                            31 2.56  10 2.58  12 2.58  39 2.59
  62  0.821  0.910  0.287-  55 2.40  61 2.41  23 2.45  34 2.47  64 2.47  33 2.49  10 2.53  56 2.55
                            35 2.55   1 2.57  41 2.58  59 2.60
  63  0.668  0.834  0.097-  23 2.49  57 2.51  51 2.52  40 2.53  24 2.53  30 2.54  34 2.54  11 2.54
                            32 2.54
  64  0.666  0.833  0.384-  69 1.82  58 2.46  62 2.47  61 2.50  55 2.52  31 2.53  41 2.53  12 2.54
                            33 2.55  25 2.56
  65  0.012  0.013  0.434-  38 1.83  41 1.85  33 1.94
  66  0.481  0.486  0.438-  17 1.84  25 1.88  58 1.89
  67  0.004  0.504  0.436-  54 1.82  20 1.87  27 1.89
  68  0.499  0.002  0.436-   9 1.84  12 1.85  31 1.86
  69  0.678  0.835  0.469-  70 1.49  64 1.82
  70  0.721  0.720  0.489-  71 0.99  69 1.49  58 2.35
  71  0.621  0.639  0.505-  70 0.99
 

IMPORTANT INFORMATION: All symmetrisations will be switched off!
NOSYMM: (Re-)initialisation of all symmetry stuff for point group C_1.

 
 
 KPOINTS: K-POINTS                                

Automatic generation of k-mesh.
Space group operators:
 irot       det(A)        alpha          n_x          n_y          n_z        tau_x        tau_y        tau_z
    1     1.000000     0.000000     1.000000     0.000000     0.000000     0.000000     0.000000     0.000000
 
 Subroutine IBZKPT returns following result:
 ===========================================
 
 Found      1 irreducible k-points:
 
 Following reciprocal coordinates:
            Coordinates               Weight
  0.000000  0.000000  0.000000      1.000000
 
 Following cartesian coordinates:
            Coordinates               Weight
  0.000000  0.000000  0.000000      1.000000
 
 
 Subroutine IBZKPT_HF returns following result:
 ==============================================
 
 Found      1 k-points in 1st BZ
 the following      1 k-points will be used (e.g. in the exchange kernel)
 Following reciprocal coordinates:   # in IRBZ
  0.000000  0.000000  0.000000    1.00000000   1 t-inv F


--------------------------------------------------------------------------------------------------------




 Dimension of arrays:
   k-points           NKPTS =      1   k-points in BZ     NKDIM =      1   number of bands    NBANDS=    369
   number of dos      NEDOS =    301   number of ions     NIONS =     71
   non local maximal  LDIM  =      6   non local SUM 2l+1 LMDIM =     18
   total plane-waves  NPLWV = ******
   max r-space proj   IRMAX =   8292   max aug-charges    IRDMAX=  19623
   dimension x,y,z NGX =    80 NGY =   80 NGZ =  160
   dimension x,y,z NGXF=   160 NGYF=  160 NGZF=  320
   support grid    NGXF=   160 NGYF=  160 NGZF=  320
   ions per type =              33  31   6   1
   NGX,Y,Z   is equivalent  to a cutoff of  13.17, 13.17, 12.52 a.u.
   NGXF,Y,Z  is equivalent  to a cutoff of  26.34, 26.34, 25.03 a.u.

 SYSTEM =  SQS-NiFe                                
 POSCAR =  POSCAR                                  

 Startparameter for this run:
   NWRITE =      2    write-flag & timer
   PREC   = accura    normal or accurate (medium, high low for compatibility)
   ISTART =      0    job   : 0-new  1-cont  2-samecut
   ICHARG =      1    charge: 1-file 2-atom 10-const
   ISPIN  =      1    spin polarized calculation?
   LNONCOLLINEAR =      F non collinear calculations
   LSORBIT =      F    spin-orbit coupling
   INIWAV =      1    electr: 0-lowe 1-rand  2-diag
   LASPH  =      F    aspherical Exc in radial PAW
   METAGGA=      F    non-selfconsistent MetaGGA calc.

 Electronic Relaxation 1
   ENCUT  =  520.0 eV  38.22 Ry    6.18 a.u.  18.78 18.78 39.52*2*pi/ulx,y,z
   ENINI  =  520.0     initial cutoff
   ENAUG  =  605.4 eV  augmentation charge cutoff
   NELM   =    200;   NELMIN=  2; NELMDL= -5     # of ELM steps 
   EDIFF  = 0.1E-05   stopping-criterion for ELM
   LREAL  =      T    real-space projection
   NLSPLINE    = F    spline interpolate recip. space projectors
   LCOMPAT=      F    compatible to vasp.4.4
   GGA_COMPAT  = T    GGA compatible to vasp.4.4-vasp.4.6
   LMAXPAW     = -100 max onsite density
   LMAXMIX     =    2 max onsite mixed and CHGCAR
   VOSKOWN=      0    Vosko Wilk Nusair interpolation
   ROPT   =   -0.00025  -0.00025  -0.00025  -0.00025
 Ionic relaxation
   EDIFFG = -.2E-01   stopping-criterion for IOM
   NSW    =    889    number of steps for IOM
   NBLOCK =      1;   KBLOCK =    889    inner block; outer block 
   IBRION =      5    ionic relax: 0-MD 1-quasi-New 2-CG
   NFREE  =      2    steps in history (QN), initial steepest desc. (CG)
   ISIF   =      2    stress and relaxation
   IWAVPR =     11    prediction:  0-non 1-charg 2-wave 3-comb
   ISYM   =      0    0-nonsym 1-usesym 2-fastsym
   LCORR  =      T    Harris-Foulkes like correction to forces

   POTIM  = 0.0150    time-step for ionic-motion
   TEIN   =    0.0    initial temperature
   TEBEG  =    0.0;   TEEND  =   0.0 temperature during run
   SMASS  =  -3.00    Nose mass-parameter (am)
   estimated Nose-frequenzy (Omega)   =  0.10E-29 period in steps =****** mass=  -0.233E-26a.u.
   SCALEE = 1.0000    scale energy and forces
   NPACO  =    256;   APACO  = 16.0  distance and # of slots for P.C.
   PSTRESS=    0.0 pullay stress

  Mass of Ions in am
   POMASS =  58.69 55.85 16.00  1.00
  Ionic Valenz
   ZVAL   =  10.00  8.00  6.00  1.00
  Atomic Wigner-Seitz radii
   RWIGS  =  -1.00 -1.00 -1.00 -1.00
  virtual crystal weights 
   VCA    =   1.00  1.00  1.00  1.00
   NELECT =     615.0000    total number of electrons
   NUPDOWN=      -1.0000    fix difference up-down

 DOS related values:
   EMIN   =  10.00;   EMAX   =-10.00  energy-range for DOS
   EFERMI =   0.00
   ISMEAR =     0;   SIGMA  =   0.20  broadening in eV -4-tet -1-fermi 0-gaus

 Electronic relaxation 2 (details)
   IALGO  =     68    algorithm
   LDIAG  =      T    sub-space diagonalisation (order eigenvalues)
   LSUBROT=      F    optimize rotation matrix (better conditioning)
   TURBO    =      0    0=normal 1=particle mesh
   IRESTART =      0    0=no restart 2=restart with 2 vectors
   NREBOOT  =      0    no. of reboots
   NMIN     =      0    reboot dimension
   EREF     =   0.00    reference energy to select bands
   IMIX   =      4    mixing-type and parameters
     AMIX     =   0.40;   BMIX     =  1.00
     AMIX_MAG =   1.60;   BMIX_MAG =  1.00
     AMIN     =   0.10
     WC   =   100.;   INIMIX=   1;  MIXPRE=   1;  MAXMIX= -45

 Intra band minimization:
   WEIMIN = 0.0010     energy-eigenvalue tresh-hold
   EBREAK =  0.68E-09  absolut break condition
   DEPER  =   0.30     relativ break condition  

   TIME   =   0.40     timestep for ELM

  volume/ion in A,a.u.               =      26.45       178.47
  Fermi-wavevector in a.u.,A,eV,Ry     =   1.128464  2.132488 17.326077  1.273431
  Thomas-Fermi vector in A             =   2.265154
 
 Write flags
   LWAVE        =      F    write WAVECAR
   LDOWNSAMPLE  =      F    k-point downsampling of WAVECAR
   LCHARG       =      F    write CHGCAR
   LVTOT        =      F    write LOCPOT, total local potential
   LVHAR        =      F    write LOCPOT, Hartree potential only
   LELF         =      F    write electronic localiz. function (ELF)
   LORBIT       =     10    0 simple, 1 ext, 2 COOP (PROOUT), +10 PAW based schemes


 Dipole corrections
   LMONO  =      F    monopole corrections only (constant potential shift)
   LDIPOL =      F    correct potential (dipole corrections)
   IDIPOL =      0    1-x, 2-y, 3-z, 4-all directions 
   EPSILON=  1.0000000 bulk dielectric constant

 Exchange correlation treatment:
   GGA     =    --    GGA type
   LEXCH   =     8    internal setting for exchange type
   VOSKOWN=      0    Vosko Wilk Nusair interpolation
   LHFCALC =     F    Hartree Fock is set to
   LHFONE  =     F    Hartree Fock one center treatment
   AEXX    =    0.0000 exact exchange contribution

 Linear response parameters
   LEPSILON=     F    determine dielectric tensor
   LRPA    =     F    only Hartree local field effects (RPA)
   LNABLA  =     F    use nabla operator in PAW spheres
   LVEL    =     F    velocity operator in full k-point grid
   LINTERFAST=   F  fast interpolation
   KINTER  =     0    interpolate to denser k-point grid
   CSHIFT  =0.1000    complex shift for real part using Kramers Kronig
   OMEGAMAX=  -1.0    maximum frequency
   DEG_THRESHOLD= 0.2000000E-02 threshold for treating states as degnerate
   RTIME   =   -0.100 relaxation time in fs
  (WPLASMAI=    0.000 imaginary part of plasma frequency in eV, 0.658/RTIME)
   DFIELD  = 0.0000000 0.0000000 0.0000000 field for delta impulse in time
 
 Orbital magnetization related:
   ORBITALMAG=     F  switch on orbital magnetization
   LCHIMAG   =     F  perturbation theory with respect to B field
   DQ        =  0.001000  dq finite difference perturbation B field
   LLRAUG    =     F  two centre corrections for induced B field



--------------------------------------------------------------------------------------------------------


 finite differences
   using selective dynamics as specified on POSCAR
 charge density and potential will be updated during run
 non-spin polarized calculation
 RMM-DIIS sequential band-by-band and
  variant of blocked Davidson during initial phase
 perform sub-space diagonalisation
    before iterative eigenvector-optimisation
 modified Broyden-mixing scheme, WC =      100.0
 initial mixing is a Kerker type mixing with AMIX =  0.4000 and BMIX =      1.0000
 Hartree-type preconditioning will be used
 using additional bands           61
 real space projection scheme for non local part
 use partial core corrections
 calculate Harris-corrections to forces 
   (improved forces if not selfconsistent)
 use gradient corrections 
 use of overlap-Matrix (Vanderbilt PP)
 Gauss-broadening in eV      SIGMA  =   0.20


--------------------------------------------------------------------------------------------------------


  energy-cutoff  :      520.00
  volume of cell :     1877.75
      direct lattice vectors                 reciprocal lattice vectors
    10.100310000  0.000000000  0.000000000     0.099006862  0.057161638  0.000000000
    -5.050155000  8.747125050  0.000000000     0.000000000  0.114323277  0.000000000
     0.000000000  0.000000000 21.253800000     0.000000000  0.000000000  0.047050410

  length of vectors
    10.100310000 10.100310003 21.253800000     0.114323277  0.114323277  0.047050410


 
 k-points in units of 2pi/SCALE and weight: K-POINTS                                
   0.00000000  0.00000000  0.00000000       1.000
 
 k-points in reciprocal lattice and weights: K-POINTS                                
   0.00000000  0.00000000  0.00000000       1.000
 
 position of ions in fractional coordinates (direct lattice) 
   0.99904300  0.00064200  0.19052300
   0.24849100  0.99862800  0.19205500
   0.49902500  0.00192700  0.19180600
   0.99813900  0.25067400  0.19194200
   0.24921500  0.24886200  0.19118600
   0.33331889  0.16447136  0.28676395
   0.74893500  0.25278100  0.19317500
   0.41837500  0.08394000  0.09411800
   0.41757605  0.08535192  0.38226899
   0.83171964  0.16531378  0.28936321
   0.66797000  0.08472300  0.09569300
   0.66646432  0.08504172  0.38262913
   0.99908600  0.49910800  0.19304000
   0.74816900  0.49871100  0.19204600
   0.58375118  0.41878270  0.28661005
   0.41961000  0.33337100  0.09414000
   0.41589599  0.32851070  0.38065606
   0.83021152  0.41588386  0.28733643
   0.91855900  0.33501600  0.09568700
   0.91337564  0.33062052  0.38434046
   0.99765800  0.74896900  0.19256000
   0.08142379  0.66517317  0.28689222
   0.75346500  0.75172800  0.19162900
   0.41737300  0.58352400  0.09623400
   0.41026635  0.58119990  0.38160595
   0.91550800  0.58461900  0.09542900
   0.90892135  0.58420647  0.38362654
   0.16682900  0.83490800  0.09456700
   0.16672298  0.83593038  0.37687380
   0.41715300  0.83338800  0.09679300
   0.41414916  0.83046292  0.38459597
   0.91985100  0.83263700  0.09539800
   0.91878959  0.83542107  0.37953137
   0.74918200  0.00453800  0.19311300
   0.07673852  0.16024935  0.28465916
   0.49319000  0.24544000  0.19167800
   0.17139600  0.08339300  0.09535900
   0.17795186  0.08609476  0.38229144
   0.58647417  0.16588697  0.28550831
   0.91693100  0.08581500  0.09410100
   0.91359915  0.08614790  0.38395570
   0.24596400  0.49669300  0.19369900
   0.07649162  0.41594264  0.28754764
   0.50297300  0.49962100  0.19096300
   0.33561950  0.41549184  0.28541457
   0.17081400  0.33724200  0.09550500
   0.16480260  0.33139192  0.37769315
   0.67264700  0.33598100  0.09600300
   0.66672081  0.33532953  0.37847743
   0.24490500  0.75270000  0.19343600
   0.49840300  0.74988300  0.19260700
   0.34365297  0.67102646  0.28587892
   0.16470600  0.58627100  0.09733100
   0.17027609  0.58930856  0.38406345
   0.58363964  0.67298523  0.28547277
   0.82675757  0.66035620  0.28883524
   0.66762500  0.58426200  0.09519900
   0.66703067  0.59060237  0.39206600
   0.08142648  0.91524681  0.28445847
   0.33508480  0.91486338  0.28793548
   0.58099500  0.90648499  0.28573263
   0.82125953  0.91024297  0.28660703
   0.66841400  0.83351100  0.09659800
   0.66561024  0.83330920  0.38373071
   0.01186216  0.01271662  0.43419018
   0.48148514  0.48644532  0.43770824
   0.00384069  0.50376521  0.43556809
   0.49945934  0.00234979  0.43581202
   0.67765162  0.83522558  0.46908791
   0.72120134  0.72005418  0.48861561
   0.62118852  0.63901855  0.50472545
 
 position of ions in cartesian coordinates  (Angst):
  10.08740180  0.00561565  4.04933774
  -2.53339006  8.73512399  4.08189856
   5.03057555  0.01685571  4.07660636
   8.81557077  2.19267682  4.07949688
   1.26035708  2.17682703  4.06342901
   2.53601819  1.43865159  6.09482358
   6.28789244  2.21110702  4.10570281
   3.80180719  0.73423368  2.00036515
   3.78660712  0.74658395  8.12466871
   7.56576596  1.44602033  6.15006785
   6.31883979  0.74108268  2.03383988
   6.30202239  0.74387057  8.13232302
   7.57050555  4.36576009  4.10283355
   5.03817098  4.36228748  4.08170727
   3.78115036  3.66314462  6.09155270
   2.55461586  2.91603783  2.00083273
   2.54164843  2.87352419  8.09038770
   6.28511577  3.63778817  6.10699103
   7.58584793  2.93042685  2.03371236
   7.55569217  2.89197907  8.16869521
   6.29424553  6.55132550  4.09263173
  -2.53682209  5.81835292  6.09754978
   3.81388716  6.57545882  4.07284444
   1.26871004  5.10415740  2.04533819
   1.20866777  5.08382816  8.11057645
   6.29449804  5.11373550  2.02822888
   6.23005421  5.11012703  8.15352171
  -2.53139019  7.30304468  2.00990810
  -2.53762421  7.31198761  8.01000039
   0.00463604  7.28974905  2.05721906
  -0.01093163  7.26416305  8.17412584
   5.08583435  7.28317996  2.02757001
   5.06105384  7.30753254  8.06648376
   7.54405284  0.03969445  4.10438508
  -0.03420122  1.40172114  6.05008882
   3.74186185  2.14689437  4.07388588
   1.31000516  0.72944900  2.02674111
   1.36257707  0.75308162  8.12514580
   5.08581601  1.45103404  6.06813656
   8.82790830  0.75063454  2.00000383
   8.79257444  0.75354644  8.16051759
  -0.02406399  4.34463578  4.11683981
  -1.32798574  3.63830227  6.11148000
   2.55701973  4.37024736  4.05868941
   1.29156279  3.63435904  6.06614413
   0.02214998  2.94989795  2.02984417
  -0.00902323  2.89872655  8.02741471
   5.09718709  2.93886782  2.04042856
   5.04062076  2.93316930  8.04408362
  -1.32763525  6.58396103  4.11125006
   1.24699942  6.55932037  4.09363066
   0.08221392  5.86955232  6.07601349
  -1.29717776  5.12818575  2.06865361
  -1.25625831  5.15475564  8.16280782
   2.49626153  5.88668598  6.06738118
   5.01560660  5.77621825  6.13884643
   3.79260580  5.11061278  2.02334051
   3.75458308  5.16607279  8.33289225
  -3.79970556  8.00577832  6.04582349
  -1.23574154  8.00242442  6.11972300
   1.29033992  7.92913756  6.07290407
   3.69810779  7.96200910  6.09148844
   2.54182886  7.29082495  2.05307457
   2.51452916  7.28905979  8.15573586
   0.05559056  0.11123390  9.22819127
   2.40652487  4.25499808  9.30296335
  -2.50530022  4.40649729  9.25747710
   5.03282740  0.02055392  9.26266161
   2.62647275  7.30582259  9.96990054
   3.64797185  6.29840398 10.38493836
   3.04705389  5.58957520 10.72733383
 


--------------------------------------------------------------------------------------------------------


 use parallel FFT for orbitals z direction half grid
 k-point  1 :   0.0000 0.0000 0.0000  plane waves:   25321

 maximum and minimum number of plane-waves per node :      1058     1052

 maximum number of plane-waves:     25321
 maximum index in each direction: 
   IXMAX=   18   IYMAX=   18   IZMAX=   39
   IXMIN=  -18   IYMIN=  -18   IZMIN=    0


 real space projection operators:
  total allocation   :      67332.08 KBytes
  max/ min on nodes  :       3400.08       2424.77


 parallel 3D FFT for wavefunctions:
    minimum data exchange during FFTs selected (reduces bandwidth)
 parallel 3D FFT for charge:
    minimum data exchange during FFTs selected (reduces bandwidth)


 total amount of memory used by VASP MPI-rank0    55332. kBytes
=======================================================================

   base      :      30000. kBytes
   nonlr-proj:       4041. kBytes
   fftplans  :       5965. kBytes
   grid      :      13166. kBytes
   one-center:         23. kBytes
   wavefun   :       2137. kBytes
 
     INWAV:  cpu time    0.0000: real time    0.0002
 Broyden mixing: mesh for mixing (old mesh)
   NGX = 37   NGY = 37   NGZ = 79
  (NGX  =160   NGY  =160   NGZ  =320)
  gives a total of 108151 points

 initial charge density was supplied:
 number of electron     615.0000051 magnetization 
 keeping initial charge density in first step


--------------------------------------------------------------------------------------------------------


 Maximum index for non-local projection operator          761
 Maximum index for augmentation-charges         1120 (set IRDMAX)


--------------------------------------------------------------------------------------------------------


 First call to EWALD:  gamma=   0.144
 Maximum number of real-space cells 4x 4x 2
 Maximum number of reciprocal cells 2x 2x 4

    FEWALD:  cpu time    0.0074: real time    0.0074


--------------------------------------- Iteration      1(   1)  ---------------------------------------


    POTLOK:  cpu time    0.2000: real time    0.2059
    SETDIJ:  cpu time    0.0261: real time    0.0262
     EDDAV:  cpu time    2.2099: real time    2.2128
       DOS:  cpu time    0.0038: real time    0.0038
    --------------------------------------------
      LOOP:  cpu time    2.4399: real time    2.4487

 eigenvalue-minimisations  :   738
 total energy-change (2. order) : 0.5763811E+04  (-0.3091368E+05)
 number of electron     615.0000051 magnetization 
 augmentation part      615.0000051 magnetization 

 Free energy of the ion-electron system (eV)
  ---------------------------------------------------
  alpha Z        PSCENC =      1474.67076830
  Ewald energy   TEWEN  =    196782.09606158
  -Hartree energ DENC   =   -252388.88662284
  -exchange      EXHF   =         0.00000000
  -V(xc)+E(xc)   XCENC  =      1268.75989653
  PAW double counting   =     62105.86199996   -64659.50636354
  entropy T*S    EENTRO =        -0.35567007
  eigenvalues    EBANDS =      4587.70234791
  atomic energy  EATOM  =     56593.46833210
  Solvation  Ediel_sol  =         0.00000000
  ---------------------------------------------------
  free energy    TOTEN  =      5763.81074994 eV

  energy without entropy =     5764.16642001  energy(sigma->0) =     5763.98858497


--------------------------------------------------------------------------------------------------------




--------------------------------------- Iteration      1(   2)  ---------------------------------------


     EDDAV:  cpu time    2.1101: real time    2.1207
       DOS:  cpu time    0.0024: real time    0.0024
    --------------------------------------------
      LOOP:  cpu time    2.1126: real time    2.1231

 eigenvalue-minimisations  :   738
 total energy-change (2. order) :-0.5483155E+04  (-0.5347671E+04)
 number of electron     615.0000051 magnetization 
 augmentation part      615.0000051 magnetization 

 Free energy of the ion-electron system (eV)
  ---------------------------------------------------
  alpha Z        PSCENC =      1474.67076830
  Ewald energy   TEWEN  =    196782.09606158
  -Hartree energ DENC   =   -252388.88662284
  -exchange      EXHF   =         0.00000000
  -V(xc)+E(xc)   XCENC  =      1268.75989653
  PAW double counting   =     62105.86199996   -64659.50636354
  entropy T*S    EENTRO =        -1.44305331
  eigenvalues    EBANDS =      -894.36574232
  atomic energy  EATOM  =     56593.46833210
  Solvation  Ediel_sol  =         0.00000000
  ---------------------------------------------------
  free energy    TOTEN  =       280.65527647 eV

  energy without entropy =      282.09832978  energy(sigma->0) =      281.37680312


--------------------------------------------------------------------------------------------------------




--------------------------------------- Iteration      1(   3)  ---------------------------------------


     EDDAV:  cpu time    2.1025: real time    2.1139
       DOS:  cpu time    0.0022: real time    0.0022
    --------------------------------------------
      LOOP:  cpu time    2.1047: real time    2.1161

 eigenvalue-minimisations  :   738
 total energy-change (2. order) :-0.6050038E+03  (-0.5403621E+03)
 number of electron     615.0000051 magnetization 
 augmentation part      615.0000051 magnetization 

 Free energy of the ion-electron system (eV)
  ---------------------------------------------------
  alpha Z        PSCENC =      1474.67076830
  Ewald energy   TEWEN  =    196782.09606158
  -Hartree energ DENC   =   -252388.88662284
  -exchange      EXHF   =         0.00000000
  -V(xc)+E(xc)   XCENC  =      1268.75989653
  PAW double counting   =     62105.86199996   -64659.50636354
  entropy T*S    EENTRO =        -2.59418637
  eigenvalues    EBANDS =     -1498.21840708
  atomic energy  EATOM  =     56593.46833210
  Solvation  Ediel_sol  =         0.00000000
  ---------------------------------------------------
  free energy    TOTEN  =      -324.34852135 eV

  energy without entropy =     -321.75433498  energy(sigma->0) =     -323.05142817


--------------------------------------------------------------------------------------------------------




--------------------------------------- Iteration      1(   4)  ---------------------------------------


     EDDAV:  cpu time    3.5590: real time    3.5720
       DOS:  cpu time    0.0018: real time    0.0018
    --------------------------------------------
      LOOP:  cpu time    3.5608: real time    3.5738

 eigenvalue-minimisations  :  1431
 total energy-change (2. order) :-0.1089707E+03  (-0.1015253E+03)
 number of electron     615.0000051 magnetization 
 augmentation part      615.0000051 magnetization 

 Free energy of the ion-electron system (eV)
  ---------------------------------------------------
  alpha Z        PSCENC =      1474.67076830
  Ewald energy   TEWEN  =    196782.09606158
  -Hartree energ DENC   =   -252388.88662284
  -exchange      EXHF   =         0.00000000
  -V(xc)+E(xc)   XCENC  =      1268.75989653
  PAW double counting   =     62105.86199996   -64659.50636354
  entropy T*S    EENTRO =        -2.56984852
  eigenvalues    EBANDS =     -1607.21347895
  atomic energy  EATOM  =     56593.46833210
  Solvation  Ediel_sol  =         0.00000000
  ---------------------------------------------------
  free energy    TOTEN  =      -433.31925538 eV

  energy without entropy =     -430.74940685  energy(sigma->0) =     -432.03433111


--------------------------------------------------------------------------------------------------------




--------------------------------------- Iteration      1(   5)  ---------------------------------------


     EDDAV:  cpu time    3.0546: real time    3.0668
       DOS:  cpu time    0.0022: real time    0.0022
    CHARGE:  cpu time    0.1150: real time    0.1151
    MIXING:  cpu time    0.0159: real time    0.0159
    --------------------------------------------
      LOOP:  cpu time    3.1877: real time    3.2001

 eigenvalue-minimisations  :  1206
 total energy-change (2. order) :-0.1802417E+02  (-0.1681184E+02)
 number of electron     615.0000049 magnetization 
 augmentation part      334.4444509 magnetization 

 Broyden mixing:
  rms(total) = 0.32767E+01    rms(broyden)= 0.32764E+01
  rms(prec ) = 0.36149E+01
  weight for this iteration     100.00

 Free energy of the ion-electron system (eV)
  ---------------------------------------------------
  alpha Z        PSCENC =      1474.67076830
  Ewald energy   TEWEN  =    196782.09606158
  -Hartree energ DENC   =   -252388.88662284
  -exchange      EXHF   =         0.00000000
  -V(xc)+E(xc)   XCENC  =      1268.75989653
  PAW double counting   =     62105.86199996   -64659.50636354
  entropy T*S    EENTRO =        -2.66797206
  eigenvalues    EBANDS =     -1625.13952926
  atomic energy  EATOM  =     56593.46833210
  Solvation  Ediel_sol  =         0.00000000
  ---------------------------------------------------
  free energy    TOTEN  =      -451.34342923 eV

  energy without entropy =     -448.67545717  energy(sigma->0) =     -450.00944320


--------------------------------------------------------------------------------------------------------




--------------------------------------- Iteration      1(   6)  ---------------------------------------


    POTLOK:  cpu time    0.1840: real time    0.1943
    SETDIJ:  cpu time    0.0109: real time    0.0109
    EDDIAG:  cpu time    0.3243: real time    0.3244
  RMM-DIIS:  cpu time    1.6909: real time    1.6927
    ORTHCH:  cpu time    0.0663: real time    0.0663
       DOS:  cpu time    0.0015: real time    0.0015
    CHARGE:  cpu time    0.1047: real time    0.1047
    MIXING:  cpu time    0.0053: real time    0.0054
    --------------------------------------------
      LOOP:  cpu time    2.3880: real time    2.4002

 eigenvalue-minimisations  :   842
 total energy-change (2. order) :-0.2241061E+03  (-0.4075597E+02)
 number of electron     615.0000062 magnetization 
 augmentation part      342.7043157 magnetization 

 Broyden mixing:
  rms(total) = 0.15144E+02    rms(broyden)= 0.15143E+02
  rms(prec ) = 0.17431E+02
  weight for this iteration     100.00

 eigenvalues of (default mixing * dielectric matrix)
  average eigenvalue GAMMA=   0.1534
  0.1534

 Free energy of the ion-electron system (eV)
  ---------------------------------------------------
  alpha Z        PSCENC =      1474.67076830
  Ewald energy   TEWEN  =    196782.09606158
  -Hartree energ DENC   =   -252157.60205775
  -exchange      EXHF   =         0.00000000
  -V(xc)+E(xc)   XCENC  =      1261.07482785
  PAW double counting   =     61437.48309259   -63931.29564328
  entropy T*S    EENTRO =        -1.22813743
  eigenvalues    EBANDS =     -2134.11673193
  atomic energy  EATOM  =     56593.46833210
  Solvation  Ediel_sol  =         0.00000000
  ---------------------------------------------------
  free energy    TOTEN  =      -675.44948797 eV

  energy without entropy =     -674.22135054  energy(sigma->0) =     -674.83541925


--------------------------------------------------------------------------------------------------------




--------------------------------------- Iteration      1(   7)  ---------------------------------------


    POTLOK:  cpu time    0.1834: real time    0.1947
    SETDIJ:  cpu time    0.0107: real time    0.0107
    EDDIAG:  cpu time    0.3118: real time    0.3118
  RMM-DIIS:  cpu time    1.4999: real time    1.5007
    ORTHCH:  cpu time    0.0668: real time    0.0668
       DOS:  cpu time    0.0016: real time    0.0016
    CHARGE:  cpu time    0.1065: real time    0.1065
    MIXING:  cpu time    0.0036: real time    0.0036
    --------------------------------------------
      LOOP:  cpu time    2.1842: real time    2.1963

 eigenvalue-minimisations  :   742
 total energy-change (2. order) : 0.1595637E+03  (-0.1974464E+02)
 number of electron     615.0000052 magnetization 
 augmentation part      337.7606455 magnetization 

 Broyden mixing:
  rms(total) = 0.10348E+02    rms(broyden)= 0.10348E+02
  rms(prec ) = 0.12114E+02
  weight for this iteration     100.00

 eigenvalues of (default mixing * dielectric matrix)
  average eigenvalue GAMMA=   0.1239
  0.1633  0.0846

 Free energy of the ion-electron system (eV)
  ---------------------------------------------------
  alpha Z        PSCENC =      1474.67076830
  Ewald energy   TEWEN  =    196782.09606158
  -Hartree energ DENC   =   -252405.96855616
  -exchange      EXHF   =         0.00000000
  -V(xc)+E(xc)   XCENC  =      1264.80880180
  PAW double counting   =     61664.21409717   -64192.58536484
  entropy T*S    EENTRO =        -1.53626372
  eigenvalues    EBANDS =     -1695.05366256
  atomic energy  EATOM  =     56593.46833210
  Solvation  Ediel_sol  =         0.00000000
  ---------------------------------------------------
  free energy    TOTEN  =      -515.88578632 eV

  energy without entropy =     -514.34952261  energy(sigma->0) =     -515.11765447


--------------------------------------------------------------------------------------------------------




--------------------------------------- Iteration      1(   8)  ---------------------------------------


    POTLOK:  cpu time    0.1843: real time    0.1982
    SETDIJ:  cpu time    0.0107: real time    0.0107
    EDDIAG:  cpu time    0.3124: real time    0.3125
  RMM-DIIS:  cpu time    1.5106: real time    1.5108
    ORTHCH:  cpu time    0.0668: real time    0.0668
       DOS:  cpu time    0.0017: real time    0.0017
    CHARGE:  cpu time    0.1107: real time    0.1107
    MIXING:  cpu time    0.0036: real time    0.0036
    --------------------------------------------
      LOOP:  cpu time    2.2008: real time    2.2149

 eigenvalue-minimisations  :   745
 total energy-change (2. order) : 0.6046135E+02  (-0.5234931E+01)
 number of electron     615.0000051 magnetization 
 augmentation part      335.2013212 magnetization 

 Broyden mixing:
  rms(total) = 0.44108E+01    rms(broyden)= 0.44105E+01
  rms(prec ) = 0.50338E+01
  weight for this iteration     100.00

 eigenvalues of (default mixing * dielectric matrix)
  average eigenvalue GAMMA=   0.1022
  0.1364  0.0977  0.0725

 Free energy of the ion-electron system (eV)
  ---------------------------------------------------
  alpha Z        PSCENC =      1474.67076830
  Ewald energy   TEWEN  =    196782.09606158
  -Hartree energ DENC   =   -252374.15916175
  -exchange      EXHF   =         0.00000000
  -V(xc)+E(xc)   XCENC  =      1266.79559455
  PAW double counting   =     61725.47226417   -64267.40178837
  entropy T*S    EENTRO =        -2.56794560
  eigenvalues    EBANDS =     -1653.79855942
  atomic energy  EATOM  =     56593.46833210
  Solvation  Ediel_sol  =         0.00000000
  ---------------------------------------------------
  free energy    TOTEN  =      -455.42443442 eV

  energy without entropy =     -452.85648883  energy(sigma->0) =     -454.14046162


--------------------------------------------------------------------------------------------------------




--------------------------------------- Iteration      1(   9)  ---------------------------------------


    POTLOK:  cpu time    0.1850: real time    0.1977
    SETDIJ:  cpu time    0.0113: real time    0.0113
    EDDIAG:  cpu time    0.3098: real time    0.3098
  RMM-DIIS:  cpu time    1.8924: real time    1.8929
    ORTHCH:  cpu time    0.0669: real time    0.0669
       DOS:  cpu time    0.0015: real time    0.0015
    CHARGE:  cpu time    0.1093: real time    0.1093
    MIXING:  cpu time    0.0039: real time    0.0039
    --------------------------------------------
      LOOP:  cpu time    2.5808: real time    2.5933

 eigenvalue-minimisations  :   938
 total energy-change (2. order) : 0.4678829E+01  (-0.1487568E+01)
 number of electron     615.0000050 magnetization 
 augmentation part      335.4095901 magnetization 

 Broyden mixing:
  rms(total) = 0.28813E+01    rms(broyden)= 0.28811E+01
  rms(prec ) = 0.36301E+01
  weight for this iteration     100.00

 eigenvalues of (default mixing * dielectric matrix)
  average eigenvalue GAMMA=   0.1100
  0.1470  0.1470  0.0907  0.0552

 Free energy of the ion-electron system (eV)
  ---------------------------------------------------
  alpha Z        PSCENC =      1474.67076830
  Ewald energy   TEWEN  =    196782.09606158
  -Hartree energ DENC   =   -252382.12062884
  -exchange      EXHF   =         0.00000000
  -V(xc)+E(xc)   XCENC  =      1266.99298117
  PAW double counting   =     61706.41763051   -64249.25587938
  entropy T*S    EENTRO =        -2.84266880
  eigenvalues    EBANDS =     -1640.17220169
  atomic energy  EATOM  =     56593.46833210
  Solvation  Ediel_sol  =         0.00000000
  ---------------------------------------------------
  free energy    TOTEN  =      -450.74560505 eV

  energy without entropy =     -447.90293624  energy(sigma->0) =     -449.32427065


--------------------------------------------------------------------------------------------------------




--------------------------------------- Iteration      1(  10)  ---------------------------------------


    POTLOK:  cpu time    0.1837: real time    0.1974
    SETDIJ:  cpu time    0.0108: real time    0.0108
    EDDIAG:  cpu time    0.3143: real time    0.3143
  RMM-DIIS:  cpu time    1.6752: real time    1.6757
    ORTHCH:  cpu time    0.0656: real time    0.0664
       DOS:  cpu time    0.0016: real time    0.0016
    CHARGE:  cpu time    0.1098: real time    0.1098
    MIXING:  cpu time    0.0039: real time    0.0039
    --------------------------------------------
      LOOP:  cpu time    2.3649: real time    2.3800

 eigenvalue-minimisations  :   840
 total energy-change (2. order) : 0.9672383E+00  (-0.3381237E+00)
 number of electron     615.0000052 magnetization 
 augmentation part      335.6247863 magnetization 

 Broyden mixing:
  rms(total) = 0.25496E+01    rms(broyden)= 0.25494E+01
  rms(prec ) = 0.30790E+01
  weight for this iteration     100.00

 eigenvalues of (default mixing * dielectric matrix)
  average eigenvalue GAMMA=   0.1399
  0.2321  0.2321  0.1167  0.0792  0.0397

 Free energy of the ion-electron system (eV)
  ---------------------------------------------------
  alpha Z        PSCENC =      1474.67076830
  Ewald energy   TEWEN  =    196782.09606158
  -Hartree energ DENC   =   -252374.30681320
  -exchange      EXHF   =         0.00000000
  -V(xc)+E(xc)   XCENC  =      1266.98691835
  PAW double counting   =     61661.41674076   -64202.83337717
  entropy T*S    EENTRO =        -2.85249857
  eigenvalues    EBANDS =     -1648.42449886
  atomic energy  EATOM  =     56593.46833210
  Solvation  Ediel_sol  =         0.00000000
  ---------------------------------------------------
  free energy    TOTEN  =      -449.77836671 eV

  energy without entropy =     -446.92586813  energy(sigma->0) =     -448.35211742


--------------------------------------------------------------------------------------------------------




--------------------------------------- Iteration      1(  11)  ---------------------------------------


    POTLOK:  cpu time    0.1837: real time    0.1969
    SETDIJ:  cpu time    0.0107: real time    0.0107
    EDDIAG:  cpu time    0.3117: real time    0.3117
  RMM-DIIS:  cpu time    1.5374: real time    1.5377
    ORTHCH:  cpu time    0.0665: real time    0.0666
       DOS:  cpu time    0.0019: real time    0.0019
    CHARGE:  cpu time    0.1102: real time    0.1102
    MIXING:  cpu time    0.0038: real time    0.0038
    --------------------------------------------
      LOOP:  cpu time    2.2251: real time    2.2395

 eigenvalue-minimisations  :   757
 total energy-change (2. order) :-0.8364677E+00  (-0.4959171E+00)
 number of electron     615.0000049 magnetization 
 augmentation part      335.8750845 magnetization 

 Broyden mixing:
  rms(total) = 0.29094E+01    rms(broyden)= 0.29092E+01
  rms(prec ) = 0.34268E+01
  weight for this iteration     100.00

 eigenvalues of (default mixing * dielectric matrix)
  average eigenvalue GAMMA=   0.2165
  0.6809  0.2158  0.2158  0.0856  0.0650  0.0361

 Free energy of the ion-electron system (eV)
  ---------------------------------------------------
  alpha Z        PSCENC =      1474.67076830
  Ewald energy   TEWEN  =    196782.09606158
  -Hartree energ DENC   =   -252379.27645093
  -exchange      EXHF   =         0.00000000
  -V(xc)+E(xc)   XCENC  =      1266.87042893
  PAW double counting   =     61549.13077129   -64086.19517095
  entropy T*S    EENTRO =        -2.67716952
  eigenvalues    EBANDS =     -1648.70240521
  atomic energy  EATOM  =     56593.46833210
  Solvation  Ediel_sol  =         0.00000000
  ---------------------------------------------------
  free energy    TOTEN  =      -450.61483440 eV

  energy without entropy =     -447.93766488  energy(sigma->0) =     -449.27624964


--------------------------------------------------------------------------------------------------------




--------------------------------------- Iteration      1(  12)  ---------------------------------------


    POTLOK:  cpu time    0.1857: real time    0.1990
    SETDIJ:  cpu time    0.0107: real time    0.0107
    EDDIAG:  cpu time    0.3189: real time    0.3190
  RMM-DIIS:  cpu time    1.5054: real time    1.5067
    ORTHCH:  cpu time    0.0669: real time    0.0669
       DOS:  cpu time    0.0016: real time    0.0016
    CHARGE:  cpu time    0.1104: real time    0.1104
    MIXING:  cpu time    0.0040: real time    0.0040
    --------------------------------------------
      LOOP:  cpu time    2.2035: real time    2.2182

 eigenvalue-minimisations  :   745
 total energy-change (2. order) :-0.3489463E+01  (-0.9440558E+00)
 number of electron     615.0000050 magnetization 
 augmentation part      335.9105431 magnetization 

 Broyden mixing:
  rms(total) = 0.41339E+01    rms(broyden)= 0.41337E+01
  rms(prec ) = 0.46949E+01
  weight for this iteration     100.00

 eigenvalues of (default mixing * dielectric matrix)
  average eigenvalue GAMMA=   0.3071
  1.3307  0.2694  0.2694  0.1031  0.0762  0.0641  0.0365

 Free energy of the ion-electron system (eV)
  ---------------------------------------------------
  alpha Z        PSCENC =      1474.67076830
  Ewald energy   TEWEN  =    196782.09606158
  -Hartree energ DENC   =   -252383.01022342
  -exchange      EXHF   =         0.00000000
  -V(xc)+E(xc)   XCENC  =      1267.36798411
  PAW double counting   =     61377.91516121   -63911.67136673
  entropy T*S    EENTRO =        -2.71236768
  eigenvalues    EBANDS =     -1652.22864738
  atomic energy  EATOM  =     56593.46833210
  Solvation  Ediel_sol  =         0.00000000
  ---------------------------------------------------
  free energy    TOTEN  =      -454.10429789 eV

  energy without entropy =     -451.39193022  energy(sigma->0) =     -452.74811406


--------------------------------------------------------------------------------------------------------




--------------------------------------- Iteration      1(  13)  ---------------------------------------


    POTLOK:  cpu time    0.1852: real time    0.1985
    SETDIJ:  cpu time    0.0109: real time    0.0109
    EDDIAG:  cpu time    0.3123: real time    0.3123
  RMM-DIIS:  cpu time    1.5017: real time    1.5021
    ORTHCH:  cpu time    0.0659: real time    0.0659
       DOS:  cpu time    0.0016: real time    0.0016
    CHARGE:  cpu time    0.1104: real time    0.1104
    MIXING:  cpu time    0.0041: real time    0.0041
    --------------------------------------------
      LOOP:  cpu time    2.1920: real time    2.2058

 eigenvalue-minimisations  :   747
 total energy-change (2. order) :-0.4441270E+01  (-0.1741565E+01)
 number of electron     615.0000049 magnetization 
 augmentation part      335.7620716 magnetization 

 Broyden mixing:
  rms(total) = 0.49227E+01    rms(broyden)= 0.49225E+01
  rms(prec ) = 0.55780E+01
  weight for this iteration     100.00

 eigenvalues of (default mixing * dielectric matrix)
  average eigenvalue GAMMA=   0.3347
  1.7028  0.2929  0.2929  0.1344  0.0777  0.0777  0.0622  0.0365

 Free energy of the ion-electron system (eV)
  ---------------------------------------------------
  alpha Z        PSCENC =      1474.67076830
  Ewald energy   TEWEN  =    196782.09606158
  -Hartree energ DENC   =   -252389.74198577
  -exchange      EXHF   =         0.00000000
  -V(xc)+E(xc)   XCENC  =      1268.30997581
  PAW double counting   =     61241.69975964   -63776.18015817
  entropy T*S    EENTRO =        -2.59630796
  eigenvalues    EBANDS =     -1650.27201295
  atomic energy  EATOM  =     56593.46833210
  Solvation  Ediel_sol  =         0.00000000
  ---------------------------------------------------
  free energy    TOTEN  =      -458.54556741 eV

  energy without entropy =     -455.94925945  energy(sigma->0) =     -457.24741343


--------------------------------------------------------------------------------------------------------




--------------------------------------- Iteration      1(  14)  ---------------------------------------


    POTLOK:  cpu time    0.1857: real time    0.1985
    SETDIJ:  cpu time    0.0106: real time    0.0106
    EDDIAG:  cpu time    0.3121: real time    0.3121
  RMM-DIIS:  cpu time    1.5018: real time    1.5025
    ORTHCH:  cpu time    0.0664: real time    0.0665
       DOS:  cpu time    0.0017: real time    0.0017
    CHARGE:  cpu time    0.1093: real time    0.1093
    MIXING:  cpu time    0.0042: real time    0.0042
    --------------------------------------------
      LOOP:  cpu time    2.1919: real time    2.2054

 eigenvalue-minimisations  :   745
 total energy-change (2. order) : 0.4860983E+01  (-0.1031958E+01)
 number of electron     615.0000051 magnetization 
 augmentation part      335.5091679 magnetization 

 Broyden mixing:
  rms(total) = 0.39038E+01    rms(broyden)= 0.39036E+01
  rms(prec ) = 0.45300E+01
  weight for this iteration     100.00

 eigenvalues of (default mixing * dielectric matrix)
  average eigenvalue GAMMA=   0.3146
  1.7557  0.2927  0.2927  0.1686  0.0365  0.0829  0.0752  0.0664  0.0602

 Free energy of the ion-electron system (eV)
  ---------------------------------------------------
  alpha Z        PSCENC =      1474.67076830
  Ewald energy   TEWEN  =    196782.09606158
  -Hartree energ DENC   =   -252406.83432623
  -exchange      EXHF   =         0.00000000
  -V(xc)+E(xc)   XCENC  =      1268.65894913
  PAW double counting   =     61171.37106597   -63706.28769283
  entropy T*S    EENTRO =        -2.69901415
  eigenvalues    EBANDS =     -1628.12872864
  atomic energy  EATOM  =     56593.46833210
  Solvation  Ediel_sol  =         0.00000000
  ---------------------------------------------------
  free energy    TOTEN  =      -453.68458476 eV

  energy without entropy =     -450.98557061  energy(sigma->0) =     -452.33507769


--------------------------------------------------------------------------------------------------------




--------------------------------------- Iteration      1(  15)  ---------------------------------------


    POTLOK:  cpu time    0.1867: real time    0.2005
    SETDIJ:  cpu time    0.0107: real time    0.0107
    EDDIAG:  cpu time    0.3115: real time    0.3120
  RMM-DIIS:  cpu time    1.5002: real time    1.5017
    ORTHCH:  cpu time    0.0662: real time    0.0662
       DOS:  cpu time    0.0017: real time    0.0017
    CHARGE:  cpu time    0.1094: real time    0.1094
    MIXING:  cpu time    0.0045: real time    0.0045
    --------------------------------------------
      LOOP:  cpu time    2.1911: real time    2.2069

 eigenvalue-minimisations  :   747
 total energy-change (2. order) : 0.3748485E+01  (-0.3566538E+00)
 number of electron     615.0000048 magnetization 
 augmentation part      335.4846920 magnetization 

 Broyden mixing:
  rms(total) = 0.21335E+01    rms(broyden)= 0.21333E+01
  rms(prec ) = 0.24215E+01
  weight for this iteration     100.00

 eigenvalues of (default mixing * dielectric matrix)
  average eigenvalue GAMMA=   0.3183
  1.8774  0.4437  0.2216  0.2216  0.0976  0.0365  0.0849  0.0807  0.0640  0.0545

 Free energy of the ion-electron system (eV)
  ---------------------------------------------------
  alpha Z        PSCENC =      1474.67076830
  Ewald energy   TEWEN  =    196782.09606158
  -Hartree energ DENC   =   -252401.85136455
  -exchange      EXHF   =         0.00000000
  -V(xc)+E(xc)   XCENC  =      1268.55898090
  PAW double counting   =     61142.72987474   -63676.32164483
  entropy T*S    EENTRO =        -2.91289254
  eigenvalues    EBANDS =     -1630.37421503
  atomic energy  EATOM  =     56593.46833210
  Solvation  Ediel_sol  =         0.00000000
  ---------------------------------------------------
  free energy    TOTEN  =      -449.93609932 eV

  energy without entropy =     -447.02320678  energy(sigma->0) =     -448.47965305


--------------------------------------------------------------------------------------------------------




--------------------------------------- Iteration      1(  16)  ---------------------------------------


    POTLOK:  cpu time    0.1865: real time    0.2010
    SETDIJ:  cpu time    0.0107: real time    0.0107
    EDDIAG:  cpu time    0.3148: real time    0.3149
  RMM-DIIS:  cpu time    1.5139: real time    1.5144
    ORTHCH:  cpu time    0.0664: real time    0.0664
       DOS:  cpu time    0.0016: real time    0.0016
    CHARGE:  cpu time    0.1100: real time    0.1100
    MIXING:  cpu time    0.0046: real time    0.0046
    --------------------------------------------
      LOOP:  cpu time    2.2085: real time    2.2236

 eigenvalue-minimisations  :   745
 total energy-change (2. order) : 0.4646146E+00  (-0.2307277E+00)
 number of electron     615.0000053 magnetization 
 augmentation part      335.4328754 magnetization 

 Broyden mixing:
  rms(total) = 0.20344E+01    rms(broyden)= 0.20344E+01
  rms(prec ) = 0.23145E+01
  weight for this iteration     100.00

 eigenvalues of (default mixing * dielectric matrix)
  average eigenvalue GAMMA=   0.3299
  2.0349  0.5897  0.2415  0.2415  0.1129  0.1129  0.0806  0.0365  0.0643  0.0643
  0.0503

 Free energy of the ion-electron system (eV)
  ---------------------------------------------------
  alpha Z        PSCENC =      1474.67076830
  Ewald energy   TEWEN  =    196782.09606158
  -Hartree energ DENC   =   -252401.31888030
  -exchange      EXHF   =         0.00000000
  -V(xc)+E(xc)   XCENC  =      1268.51064534
  PAW double counting   =     61103.73921230   -63636.25774196
  entropy T*S    EENTRO =        -2.83233524
  eigenvalues    EBANDS =     -1631.54754687
  atomic energy  EATOM  =     56593.46833210
  Solvation  Ediel_sol  =         0.00000000
  ---------------------------------------------------
  free energy    TOTEN  =      -449.47148475 eV

  energy without entropy =     -446.63914951  energy(sigma->0) =     -448.05531713


--------------------------------------------------------------------------------------------------------




--------------------------------------- Iteration      1(  17)  ---------------------------------------


    POTLOK:  cpu time    0.1861: real time    0.1991
    SETDIJ:  cpu time    0.0108: real time    0.0108
    EDDIAG:  cpu time    0.3131: real time    0.3132
  RMM-DIIS:  cpu time    1.5290: real time    1.5298
    ORTHCH:  cpu time    0.0667: real time    0.0667
       DOS:  cpu time    0.0016: real time    0.0016
    CHARGE:  cpu time    0.1094: real time    0.1094
    MIXING:  cpu time    0.0047: real time    0.0048
    --------------------------------------------
      LOOP:  cpu time    2.2214: real time    2.2353

 eigenvalue-minimisations  :   751
 total energy-change (2. order) : 0.6683999E+00  (-0.1102334E+00)
 number of electron     615.0000051 magnetization 
 augmentation part      335.3238880 magnetization 

 Broyden mixing:
  rms(total) = 0.14440E+01    rms(broyden)= 0.14439E+01
  rms(prec ) = 0.16395E+01
  weight for this iteration     100.00

 eigenvalues of (default mixing * dielectric matrix)
  average eigenvalue GAMMA=   0.3394
  2.2177  0.7025  0.2518  0.2518  0.1368  0.1368  0.0862  0.0365  0.0685  0.0662
  0.0662  0.0512

 Free energy of the ion-electron system (eV)
  ---------------------------------------------------
  alpha Z        PSCENC =      1474.67076830
  Ewald energy   TEWEN  =    196782.09606158
  -Hartree energ DENC   =   -252402.05220634
  -exchange      EXHF   =         0.00000000
  -V(xc)+E(xc)   XCENC  =      1268.39803379
  PAW double counting   =     61049.83944355   -63580.60067604
  entropy T*S    EENTRO =        -2.99117298
  eigenvalues    EBANDS =     -1631.63166881
  atomic energy  EATOM  =     56593.46833210
  Solvation  Ediel_sol  =         0.00000000
  ---------------------------------------------------
  free energy    TOTEN  =      -448.80308485 eV

  energy without entropy =     -445.81191186  energy(sigma->0) =     -447.30749836


--------------------------------------------------------------------------------------------------------




--------------------------------------- Iteration      1(  18)  ---------------------------------------


[...]
      3.801807  0.734234  2.000365            0           0           0  
      3.786607  0.746584  8.124669            0           0           0  
      7.565766  1.446020  6.150068            0           0           0  
      6.318840  0.741083  2.033840            0           0           0  
      6.302022  0.743871  8.132323            0           0           0  
      7.570506  4.365760  4.102834            0           0           0  
      5.038171  4.362287  4.081707            0           0           0  
      3.781150  3.663145  6.091553            0           0           0  
      2.554616  2.916038  2.000833            0           0           0  
      2.541648  2.873524  8.090388            0           0           0  
      6.285116  3.637788  6.106991            0           0           0  
      7.585848  2.930427  2.033712            0           0           0  
      7.555692  2.891979  8.168695            0           0           0  
      6.294246  6.551326  4.092632            0           0           0  
     -2.536822  5.818353  6.097550            0           0           0  
      3.813887  6.575459  4.072844            0           0           0  
      1.268710  5.104157  2.045338            0           0           0  
      1.208668  5.083828  8.110576            0           0           0  
      6.294498  5.113735  2.028229            0           0           0  
      6.230054  5.110127  8.153522            0           0           0  
     -2.531390  7.303045  2.009908            0           0           0  
     -2.537624  7.311988  8.010000            0           0           0  
      0.004636  7.289749  2.057219            0           0           0  
     -0.010932  7.264163  8.174126            0           0           0  
      5.085834  7.283180  2.027570            0           0           0  
      5.061054  7.307533  8.066484            0           0           0  
      7.544053  0.039694  4.104385            0           0           0  
     -0.034201  1.401721  6.050089            0           0           0  
      3.741862  2.146894  4.073886            0           0           0  
      1.310005  0.729449  2.026741            0           0           0  
      1.362577  0.753082  8.125146            0           0           0  
      5.085816  1.451034  6.068137            0           0           0  
      8.827908  0.750635  2.000004            0           0           0  
      8.792574  0.753546  8.160518            0           0           0  
     -0.024064  4.344636  4.116840            0           0           0  
     -1.327986  3.638302  6.111480            0           0           0  
      2.557020  4.370247  4.058689            0           0           0  
      1.291563  3.634359  6.066144            0           0           0  
      0.022150  2.949898  2.029844            0           0           0  
     -0.009023  2.898727  8.027415            0           0           0  
      5.097187  2.938868  2.040429            0           0           0  
      5.040621  2.933169  8.044084            0           0           0  
     -1.327635  6.583961  4.111250            0           0           0  
      1.246999  6.559320  4.093631            0           0           0  
      0.082214  5.869552  6.076013            0           0           0  
     -1.297178  5.128186  2.068654            0           0           0  
     -1.256258  5.154756  8.162808            0           0           0  
      2.496262  5.886686  6.067381            0           0           0  
      5.015607  5.776218  6.138846            0           0           0  
      3.792606  5.110613  2.023341            0           0           0  
      3.754583  5.166073  8.332892            0           0           0  
     -3.799706  8.005778  6.045823            0           0           0  
     -1.235742  8.002424  6.119723            0           0           0  
      1.290340  7.929138  6.072904            0           0           0  
      3.698108  7.962009  6.091488            0           0           0  
      2.541829  7.290825  2.053075            0           0           0  
      2.514529  7.289060  8.155736            0           0           0  
      0.055591  0.111234  9.228191            0           0           0  
      2.406525  4.254998  9.302963            0           0           0  
     -2.505300  4.406497  9.257477            0           0           0  
      5.032827  0.020554  9.262662            0           0           0  
      2.626473  7.305823  9.969901    -0.431456   -0.507634    0.022859  
      3.647972  6.298404 10.384938     0.517819    0.392067   -0.052613  
      3.047054  5.589575 10.727334     0.291998    0.070809    0.201823  
 
   8 f  =    4.468051 THz    28.073592 2PiTHz  149.038134 cm-1    18.478380 meV
             X         Y         Z           dx          dy          dz
     10.087402  0.005616  4.049338            0           0           0  
     -2.533390  8.735124  4.081899            0           0           0  
      5.030576  0.016856  4.076606            0           0           0  
      8.815571  2.192677  4.079497            0           0           0  
      1.260357  2.176827  4.063429            0           0           0  
      2.536018  1.438652  6.094824            0           0           0  
      6.287892  2.211107  4.105703            0           0           0  
      3.801807  0.734234  2.000365            0           0           0  
      3.786607  0.746584  8.124669            0           0           0  
      7.565766  1.446020  6.150068            0           0           0  
      6.318840  0.741083  2.033840            0           0           0  
      6.302022  0.743871  8.132323            0           0           0  
      7.570506  4.365760  4.102834            0           0           0  
      5.038171  4.362287  4.081707            0           0           0  
      3.781150  3.663145  6.091553            0           0           0  
      2.554616  2.916038  2.000833            0           0           0  
      2.541648  2.873524  8.090388            0           0           0  
      6.285116  3.637788  6.106991            0           0           0  
      7.585848  2.930427  2.033712            0           0           0  
      7.555692  2.891979  8.168695            0           0           0  
      6.294246  6.551326  4.092632            0           0           0  
     -2.536822  5.818353  6.097550            0           0           0  
      3.813887  6.575459  4.072844            0           0           0  
      1.268710  5.104157  2.045338            0           0           0  
      1.208668  5.083828  8.110576            0           0           0  
      6.294498  5.113735  2.028229            0           0           0  
      6.230054  5.110127  8.153522            0           0           0  
     -2.531390  7.303045  2.009908            0           0           0  
     -2.537624  7.311988  8.010000            0           0           0  
      0.004636  7.289749  2.057219            0           0           0  
     -0.010932  7.264163  8.174126            0           0           0  
      5.085834  7.283180  2.027570            0           0           0  
      5.061054  7.307533  8.066484            0           0           0  
      7.544053  0.039694  4.104385            0           0           0  
     -0.034201  1.401721  6.050089            0           0           0  
      3.741862  2.146894  4.073886            0           0           0  
      1.310005  0.729449  2.026741            0           0           0  
      1.362577  0.753082  8.125146            0           0           0  
      5.085816  1.451034  6.068137            0           0           0  
      8.827908  0.750635  2.000004            0           0           0  
      8.792574  0.753546  8.160518            0           0           0  
     -0.024064  4.344636  4.116840            0           0           0  
     -1.327986  3.638302  6.111480            0           0           0  
      2.557020  4.370247  4.058689            0           0           0  
      1.291563  3.634359  6.066144            0           0           0  
      0.022150  2.949898  2.029844            0           0           0  
     -0.009023  2.898727  8.027415            0           0           0  
      5.097187  2.938868  2.040429            0           0           0  
      5.040621  2.933169  8.044084            0           0           0  
     -1.327635  6.583961  4.111250            0           0           0  
      1.246999  6.559320  4.093631            0           0           0  
      0.082214  5.869552  6.076013            0           0           0  
     -1.297178  5.128186  2.068654            0           0           0  
     -1.256258  5.154756  8.162808            0           0           0  
      2.496262  5.886686  6.067381            0           0           0  
      5.015607  5.776218  6.138846            0           0           0  
      3.792606  5.110613  2.023341            0           0           0  
      3.754583  5.166073  8.332892            0           0           0  
     -3.799706  8.005778  6.045823            0           0           0  
     -1.235742  8.002424  6.119723            0           0           0  
      1.290340  7.929138  6.072904            0           0           0  
      3.698108  7.962009  6.091488            0           0           0  
      2.541829  7.290825  2.053075            0           0           0  
      2.514529  7.289060  8.155736            0           0           0  
      0.055591  0.111234  9.228191            0           0           0  
      2.406525  4.254998  9.302963            0           0           0  
     -2.505300  4.406497  9.257477            0           0           0  
      5.032827  0.020554  9.262662            0           0           0  
      2.626473  7.305823  9.969901     0.504992    0.522891   -0.054534  
      3.647972  6.298404 10.384938     0.476789    0.430273   -0.033529  
      3.047054  5.589575 10.727334     0.112943    0.174675    0.108352  
 
   9 f/i=    1.134250 THz     7.126700 2PiTHz   37.834493 cm-1     4.690881 meV
             X         Y         Z           dx          dy          dz
     10.087402  0.005616  4.049338            0           0           0  
     -2.533390  8.735124  4.081899            0           0           0  
      5.030576  0.016856  4.076606            0           0           0  
      8.815571  2.192677  4.079497            0           0           0  
      1.260357  2.176827  4.063429            0           0           0  
      2.536018  1.438652  6.094824            0           0           0  
      6.287892  2.211107  4.105703            0           0           0  
      3.801807  0.734234  2.000365            0           0           0  
      3.786607  0.746584  8.124669            0           0           0  
      7.565766  1.446020  6.150068            0           0           0  
      6.318840  0.741083  2.033840            0           0           0  
      6.302022  0.743871  8.132323            0           0           0  
      7.570506  4.365760  4.102834            0           0           0  
      5.038171  4.362287  4.081707            0           0           0  
      3.781150  3.663145  6.091553            0           0           0  
      2.554616  2.916038  2.000833            0           0           0  
      2.541648  2.873524  8.090388            0           0           0  
      6.285116  3.637788  6.106991            0           0           0  
      7.585848  2.930427  2.033712            0           0           0  
      7.555692  2.891979  8.168695            0           0           0  
      6.294246  6.551326  4.092632            0           0           0  
     -2.536822  5.818353  6.097550            0           0           0  
      3.813887  6.575459  4.072844            0           0           0  
      1.268710  5.104157  2.045338            0           0           0  
      1.208668  5.083828  8.110576            0           0           0  
      6.294498  5.113735  2.028229            0           0           0  
      6.230054  5.110127  8.153522            0           0           0  
     -2.531390  7.303045  2.009908            0           0           0  
     -2.537624  7.311988  8.010000            0           0           0  
      0.004636  7.289749  2.057219            0           0           0  
     -0.010932  7.264163  8.174126            0           0           0  
      5.085834  7.283180  2.027570            0           0           0  
      5.061054  7.307533  8.066484            0           0           0  
      7.544053  0.039694  4.104385            0           0           0  
     -0.034201  1.401721  6.050089            0           0           0  
      3.741862  2.146894  4.073886            0           0           0  
      1.310005  0.729449  2.026741            0           0           0  
      1.362577  0.753082  8.125146            0           0           0  
      5.085816  1.451034  6.068137            0           0           0  
      8.827908  0.750635  2.000004            0           0           0  
      8.792574  0.753546  8.160518            0           0           0  
     -0.024064  4.344636  4.116840            0           0           0  
     -1.327986  3.638302  6.111480            0           0           0  
      2.557020  4.370247  4.058689            0           0           0  
      1.291563  3.634359  6.066144            0           0           0  
      0.022150  2.949898  2.029844            0           0           0  
     -0.009023  2.898727  8.027415            0           0           0  
      5.097187  2.938868  2.040429            0           0           0  
      5.040621  2.933169  8.044084            0           0           0  
     -1.327635  6.583961  4.111250            0           0           0  
      1.246999  6.559320  4.093631            0           0           0  
      0.082214  5.869552  6.076013            0           0           0  
     -1.297178  5.128186  2.068654            0           0           0  
     -1.256258  5.154756  8.162808            0           0           0  
      2.496262  5.886686  6.067381            0           0           0  
      5.015607  5.776218  6.138846            0           0           0  
      3.792606  5.110613  2.023341            0           0           0  
      3.754583  5.166073  8.332892            0           0           0  
     -3.799706  8.005778  6.045823            0           0           0  
     -1.235742  8.002424  6.119723            0           0           0  
      1.290340  7.929138  6.072904            0           0           0  
      3.698108  7.962009  6.091488            0           0           0  
      2.541829  7.290825  2.053075            0           0           0  
      2.514529  7.289060  8.155736            0           0           0  
      0.055591  0.111234  9.228191            0           0           0  
      2.406525  4.254998  9.302963            0           0           0  
     -2.505300  4.406497  9.257477            0           0           0  
      5.032827  0.020554  9.262662            0           0           0  
      2.626473  7.305823  9.969901     0.306057   -0.217481   -0.070016  
      3.647972  6.298404 10.384938     0.390209   -0.545639   -0.614707  
      3.047054  5.589575 10.727334     0.092955   -0.102134   -0.084890  
 
 Finite differences POTIM=  1.500000000000000E-002
     LOOP+:  cpu time   41.1619: real time   41.4763
    4ORBIT:  cpu time    0.0000: real time    0.0000
 


 total charge     
 
# of ion       s       p       d       tot
------------------------------------------
    1        0.500   0.499   8.303   9.302
    2        0.504   0.505   8.306   9.316
    3        0.504   0.500   8.310   9.315
    4        0.500   0.501   8.305   9.306
    5        0.506   0.510   8.293   9.310
    6        0.516   0.517   8.312   9.345
    7        0.497   0.495   8.310   9.302
    8        0.489   0.353   8.311   9.153
    9        0.509   0.519   8.320   9.349
   10        0.519   0.521   8.306   9.346
   11        0.496   0.360   8.310   9.166
   12        0.503   0.508   8.315   9.325
   13        0.495   0.492   8.317   9.305
   14        0.499   0.498   8.310   9.307
   15        0.513   0.509   8.306   9.329
   16        0.502   0.372   8.295   9.169
   17        0.507   0.524   8.318   9.350
   18        0.512   0.500   8.329   9.341
   19        0.496   0.368   8.304   9.167
   20        0.493   0.491   8.316   9.301
   21        0.491   0.482   8.324   9.298
   22        0.510   0.501   8.312   9.323
   23        0.506   0.514   8.295   9.315
   24        0.506   0.378   8.295   9.178
   25        0.500   0.507   8.311   9.318
   26        0.495   0.360   8.318   9.173
   27        0.486   0.475   8.318   9.280
   28        0.496   0.356   8.314   9.166
   29        0.501   0.373   8.365   9.239
   30        0.491   0.359   8.306   9.156
   31        0.497   0.498   8.309   9.304
   32        0.496   0.366   8.310   9.172
   33        0.487   0.477   8.318   9.281
   34        0.458   0.491   6.251   7.200
   35        0.464   0.485   6.255   7.204
   36        0.455   0.477   6.255   7.187
   37        0.449   0.344   6.246   7.038
   38        0.465   0.495   6.303   7.263
   39        0.467   0.483   6.273   7.223
   40        0.448   0.340   6.234   7.023
   41        0.451   0.477   6.288   7.215
   42        0.469   0.498   6.252   7.220
   43        0.466   0.482   6.264   7.213
   44        0.462   0.488   6.258   7.208
   45        0.471   0.485   6.273   7.230
   46        0.451   0.347   6.244   7.042
   47        0.454   0.352   6.297   7.103
   48        0.447   0.344   6.249   7.040
   49        0.445   0.349   6.304   7.099
   50        0.460   0.491   6.251   7.201
   51        0.477   0.506   6.274   7.258
   52        0.493   0.526   6.285   7.305
   53        0.453   0.347   6.246   7.046
   54        0.459   0.483   6.279   7.222
   55        0.494   0.528   6.286   7.308
   56        0.464   0.483   6.263   7.211
   57        0.454   0.353   6.248   7.055
   58        0.415   0.451   6.260   7.125
   59        0.467   0.488   6.270   7.225
   60        0.468   0.486   6.281   7.235
   61        0.500   0.529   6.301   7.330
   62        0.487   0.515   6.278   7.280
   63        0.454   0.348   6.246   7.049
   64        0.478   0.517   6.318   7.313
   65        1.585   3.334   0.000   4.919
   66        1.579   3.348   0.000   4.927
   67        1.583   3.334   0.000   4.917
   68        1.584   3.331   0.000   4.914
   69        1.604   3.240   0.000   4.844
   70        1.593   3.373   0.000   4.967
   71        0.602   0.117   0.000   0.718
--------------------------------------------------
tot         40.998  49.257 468.628 558.883
 

 total amount of memory used by VASP MPI-rank0    55332. kBytes
=======================================================================

   base      :      30000. kBytes
   nonlr-proj:       4041. kBytes
   fftplans  :       5965. kBytes
   grid      :      13166. kBytes
   one-center:         23. kBytes
   wavefun   :       2137. kBytes
 
  
  
 General timing and accounting informations for this job:
 ========================================================
  
                  Total CPU time used (sec):     1005.593
                            User time (sec):      976.728
                          System time (sec):       28.864
                         Elapsed time (sec):     1012.672
  
                   Maximum memory used (kb):      297688.
                   Average memory used (kb):           0.
  
                          Minor page faults:      9161708
                          Major page faults:            0
                 Voluntary context switches:         1734
