       N       E                     dE             d eps       ncg     rms          rms(c)
DAV:   1     0.458174543270E+04    0.45817E+04   -0.26220E+05  8289   0.158E+03
DAV:   2     0.695571162011E+02   -0.45122E+04   -0.42421E+04  8280   0.354E+02
DAV:   3    -0.364403215676E+03   -0.43396E+03   -0.37314E+03  8541   0.149E+02
DAV:   4    -0.382478588860E+03   -0.18075E+02   -0.17726E+02  8829   0.334E+01
DAV:   5    -0.382819357566E+03   -0.34077E+00   -0.34064E+00  9720   0.363E+00    0.717E-01
RMM:   6    -0.382876161790E+03   -0.56804E-01   -0.20071E-01  8550   0.104E+00    0.405E+00
RMM:   7    -0.382846598800E+03    0.29563E-01   -0.60793E-02  9137   0.558E-01    0.246E+00
RMM:   8    -0.382827982878E+03    0.18616E-01   -0.20772E-02  8843   0.300E-01    0.113E+00
RMM:   9    -0.382826130229E+03    0.18526E-02   -0.82676E-03  8729   0.201E-01    0.914E-01
RMM:  10    -0.382823273669E+03    0.28566E-02   -0.40389E-03  8732   0.148E-01    0.314E-01
RMM:  11    -0.382824190879E+03   -0.91721E-03   -0.20500E-03  8673   0.105E-01    0.533E-01
RMM:  12    -0.382823389511E+03    0.80137E-03   -0.11002E-03  8660   0.820E-02    0.232E-01
RMM:  13    -0.382823500731E+03   -0.11122E-03   -0.56837E-04  8666   0.576E-02    0.211E-01
RMM:  14    -0.382823854939E+03   -0.35421E-03   -0.36719E-04  8623   0.468E-02    0.230E-01
RMM:  15    -0.382823868566E+03   -0.13627E-04   -0.24110E-04  8675   0.395E-02    0.880E-02
RMM:  16    -0.382824104815E+03   -0.23625E-03   -0.12239E-04  8639   0.271E-02    0.130E-01
RMM:  17    -0.382824302639E+03   -0.19782E-03   -0.62694E-05  8595   0.206E-02    0.573E-02
RMM:  18    -0.382824355700E+03   -0.53061E-04   -0.18598E-05  8676   0.108E-02    0.319E-02
RMM:  19    -0.382824542973E+03   -0.18727E-03   -0.12909E-05  8489   0.858E-03    0.457E-02
RMM:  20    -0.382824634906E+03   -0.91933E-04   -0.79927E-06  8290   0.720E-03    0.197E-02
RMM:  21    -0.382824681358E+03   -0.46451E-04   -0.35867E-06  6846   0.468E-03    0.270E-02
RMM:  22    -0.382824817540E+03   -0.13618E-03   -0.59988E-06  7776   0.537E-03    0.253E-02
RMM:  23    -0.382824845701E+03   -0.28161E-04   -0.24996E-06  5773   0.410E-03    0.118E-02
RMM:  24    -0.382824889254E+03   -0.43553E-04   -0.33296E-06  6127   0.416E-03    0.229E-02
RMM:  25    -0.382824892244E+03   -0.29895E-05   -0.33802E-06  6263   0.454E-03    0.102E-02
RMM:  26    -0.382824889941E+03    0.23024E-05   -0.11505E-06  5196   0.262E-03    0.978E-03
RMM:  27    -0.382824892352E+03   -0.24110E-05   -0.87719E-07  5116   0.232E-03    0.632E-03
RMM:  28    -0.382824894738E+03   -0.23861E-05   -0.36304E-07  5060   0.158E-03    0.408E-03
RMM:  29    -0.382824908811E+03   -0.14073E-04   -0.24979E-07  4952   0.110E-03    0.343E-03
RMM:  30    -0.382824913012E+03   -0.42016E-05   -0.11623E-07  4937   0.887E-04    0.211E-03
RMM:  31    -0.382824923293E+03   -0.10280E-04   -0.86934E-08  4769   0.569E-04    0.217E-03
RMM:  32    -0.382824926434E+03   -0.31417E-05   -0.37044E-08  4585   0.495E-04    0.117E-03
RMM:  33    -0.382824932743E+03   -0.63084E-05   -0.21319E-08  2249   0.297E-04    0.885E-04
RMM:  34    -0.382824935142E+03   -0.23991E-05   -0.52907E-09  2015   0.259E-04    0.474E-04
RMM:  35    -0.382824939763E+03   -0.46207E-05   -0.23139E-08  2317   0.298E-04    0.590E-04
RMM:  36    -0.382824941974E+03   -0.22109E-05   -0.74400E-09  1825   0.277E-04    0.405E-04
RMM:  37    -0.382824945910E+03   -0.39361E-05   -0.31490E-08  2286   0.300E-04    0.448E-04
RMM:  38    -0.382824948100E+03   -0.21899E-05   -0.73586E-09  1849   0.272E-04    0.208E-04
RMM:  39    -0.382824950594E+03   -0.24944E-05   -0.24424E-08  2211   0.288E-04    0.284E-04
RMM:  40    -0.382824952267E+03   -0.16728E-05   -0.10420E-08  1844   0.272E-04    0.202E-04
RMM:  41    -0.382824954593E+03   -0.23264E-05   -0.29735E-08  2207   0.289E-04    0.250E-04
RMM:  42    -0.382824956230E+03   -0.16367E-05   -0.14398E-08  1943   0.275E-04    0.147E-04
RMM:  43    -0.382824957875E+03   -0.16448E-05   -0.33152E-08  2216   0.290E-04    0.205E-04
RMM:  44    -0.382824958593E+03   -0.71796E-06   -0.10506E-08  1869   0.272E-04
   1 F= -.38282496E+03 E0= -.38282496E+03  d E =0.000000E+00  mag=    81.9189
