       N       E                     dE             d eps       ncg     rms          rms(c)
DAV:   1     0.379072060982E+04    0.37907E+04   -0.16611E+05 74256   0.171E+03
DAV:   2     0.260793320863E+03   -0.35299E+04   -0.32463E+04 74256   0.362E+02
DAV:   3    -0.288727696506E+03   -0.54952E+03   -0.42984E+03 74262   0.167E+02
DAV:   4    -0.328754461381E+03   -0.40027E+02   -0.38632E+02 79437   0.543E+01
DAV:   5    -0.329352884543E+03   -0.59842E+00   -0.59757E+00 96312   0.617E+00
RMM:   6    -0.329373851574E+03   -0.20967E-01   -0.20965E-01 81641   0.996E-01
RMM:   7    -0.329380417649E+03   -0.65661E-02   -0.65380E-02117487   0.332E-01
RMM:   8    -0.329380445043E+03   -0.27394E-04   -0.56894E-04110958   0.417E-02
RMM:   9    -0.329380450969E+03   -0.59255E-05   -0.59379E-05 94469   0.112E-02
RMM:  10    -0.329380451349E+03   -0.38014E-06   -0.38575E-06 69715   0.299E-03
   1 F= -.32938045E+03 E0= -.32938045E+03  d E =0.000000E+00  mag=    78.5582
