 vasp.5.4.4.18Apr17-6-g9f103f2a35 (build Sep 06 2021 19:49:22) complex          
  
 executed on             LinuxIFC date 2021.12.25  16:27:41
 running on   48 total cores
 distrk:  each k-point on   48 cores,    1 groups
 distr:  one band on NCORES_PER_BAND=  16 cores,    3 groups


--------------------------------------------------------------------------------------------------------


 INCAR:
 POTCAR:    PAW_PBE Ni 02Aug2007                  
 POTCAR:    PAW_PBE Fe 06Sep2000                  

 ----------------------------------------------------------------------------- 
|                                                                             |
|           W    W    AA    RRRRR   N    N  II  N    N   GGGG   !!!           |
|           W    W   A  A   R    R  NN   N  II  NN   N  G    G  !!!           |
|           W    W  A    A  R    R  N N  N  II  N N  N  G       !!!           |
|           W WW W  AAAAAA  RRRRR   N  N N  II  N  N N  G  GGG   !            |
|           WW  WW  A    A  R   R   N   NN  II  N   NN  G    G                |
|           W    W  A    A  R    R  N    N  II  N    N   GGGG   !!!           |
|                                                                             |
|      For optimal performance we recommend to set                            |
|        NCORE= 4 - approx SQRT( number of cores)                             |
|      NCORE specifies how many cores store one orbital (NPAR=cpu/NCORE).     |
|      This setting can  greatly improve the performance of VASP for DFT.     |
|      The default,   NCORE=1            might be grossly inefficient         |
|      on modern multi-core architectures or massively parallel machines.     |
|      Do your own testing !!!!                                               |
|      Unfortunately you need to use the default for GW and RPA calculations. |
|      (for HF NCORE is supported but not extensively tested yet)             |
|                                                                             |
 ----------------------------------------------------------------------------- 

 POTCAR:    PAW_PBE Ni 02Aug2007                  
   VRHFIN =Ni:                                                                  
   LEXCH  = PE                                                                  
   EATOM  =  1077.6739 eV,   79.2068 Ry                                         
                                                                                
   TITEL  = PAW_PBE Ni 02Aug2007                                                
   LULTRA =        F    use ultrasoft PP ?                                      
   IUNSCR =        1    unscreen: 0-lin 1-nonlin 2-no                           
   RPACOR =    2.000    partial core radius                                     
   POMASS =   58.690; ZVAL   =   10.000    mass and valenz                      
   RCORE  =    2.300    outmost cutoff radius                                   
   RWIGS  =    2.430; RWIGS  =    1.286    wigner-seitz radius (au A)           
   ENMAX  =  269.532; ENMIN  =  202.149 eV                                      
   RCLOC  =    1.201    cutoff for local pot                                    
   LCOR   =        T    correct aug charges                                     
   LPAW   =        T    paw PP                                                  
   EAUG   =  544.565                                                            
   DEXC   =    0.000                                                            
   RMAX   =    2.357    core radius for proj-oper                               
   RAUG   =    1.300    factor for augmentation sphere                          
   RDEP   =    2.390    radius for radial grids                                 
   RDEPT  =    1.838    core radius for aug-charge                              
                                                                                
   Atomic configuration                                                         
    9 entries                                                                   
     n  l   j            E        occ.                                          
     1  0  0.50     -8206.4253   2.0000                                         
     2  0  0.50      -976.1748   2.0000                                         
     2  1  1.50      -839.0571   6.0000                                         
     3  0  0.50      -105.9991   2.0000                                         
     3  1  1.50       -66.4603   6.0000                                         
     3  2  2.50        -4.6458   9.0000                                         
     4  0  0.50        -4.4926   1.0000                                         
     4  1  1.50        -4.0817   0.0000                                         
     4  3  2.50        -1.3606   0.0000                                         
   Description                                                                  
     l       E           TYP  RCUT    TYP  RCUT                                 
     2     -4.6457903     23  2.300                                             
     2     -6.0063729     23  2.300                                             
     0     -4.4925590     23  2.300                                             
     0      5.0102601     23  2.300                                             
     1     -2.7211652     23  2.300                                             
     1     16.5183231     23  2.300                                             
  local pseudopotential read in
  partial core-charges read in
  partial kinetic energy density read in
  atomic valenz-charges read in
  non local Contribution for L=           2  read in
    real space projection operators read in
  non local Contribution for L=           2  read in
    real space projection operators read in
  non local Contribution for L=           0  read in
    real space projection operators read in
  non local Contribution for L=           0  read in
    real space projection operators read in
  non local Contribution for L=           1  read in
    real space projection operators read in
  non local Contribution for L=           1  read in
    real space projection operators read in
    PAW grid and wavefunctions read in
 
   number of l-projection  operators is LMAX  =           6
   number of lm-projection operators is LMMAX =          18
 
 POTCAR:    PAW_PBE Fe 06Sep2000                  
   VRHFIN =Fe:  d7 s1                                                           
   LEXCH  = PE                                                                  
   EATOM  =   594.3153 eV,   43.6809 Ry                                         
                                                                                
   TITEL  = PAW_PBE Fe 06Sep2000                                                
   LULTRA =        F    use ultrasoft PP ?                                      
   IUNSCR =        1    unscreen: 0-lin 1-nonlin 2-no                           
   RPACOR =    2.000    partial core radius                                     
   POMASS =   55.847; ZVAL   =    8.000    mass and valenz                      
   RCORE  =    2.300    outmost cutoff radius                                   
   RWIGS  =    2.460; RWIGS  =    1.302    wigner-seitz radius (au A)           
   ENMAX  =  267.882; ENMIN  =  200.911 eV                                      
   RCLOC  =    1.701    cutoff for local pot                                    
   LCOR   =        T    correct aug charges                                     
   LPAW   =        T    paw PP                                                  
   EAUG   =  511.368                                                            
   DEXC   =    0.000                                                            
   RMAX   =    2.356    core radius for proj-oper                               
   RAUG   =    1.300    factor for augmentation sphere                          
   RDEP   =    2.442    radius for radial grids                                 
   RDEPT  =    1.890    core radius for aug-charge                              
                                                                                
   Atomic configuration                                                         
    9 entries                                                                   
     n  l   j            E        occ.                                          
     1  0  0.50     -6993.8440   2.0000                                         
     2  0  0.50      -814.6047   2.0000                                         
     2  1  1.50      -693.3689   6.0000                                         
     3  0  0.50       -89.4732   2.0000                                         
     3  1  1.50       -55.6373   6.0000                                         
     3  2  2.50        -3.8151   7.0000                                         
     4  0  0.50        -4.2551   1.0000                                         
     4  1  1.50        -3.4015   0.0000                                         
     4  3  2.50        -1.3606   0.0000                                         
   Description                                                                  
     l       E           TYP  RCUT    TYP  RCUT                                 
     2     -3.8151135     23  2.300                                             
     2     -5.1756961     23  2.300                                             
     0     -4.2550963     23  2.300                                             
     0      7.2035603     23  2.300                                             
     1     -2.7211652     23  2.300                                             
     1     18.4316424     23  2.300                                             
  local pseudopotential read in
  partial core-charges read in
  partial kinetic energy density read in
  atomic valenz-charges read in
  non local Contribution for L=           2  read in
    real space projection operators read in
  non local Contribution for L=           2  read in
    real space projection operators read in
  non local Contribution for L=           0  read in
    real space projection operators read in
  non local Contribution for L=           0  read in
    real space projection operators read in
  non local Contribution for L=           1  read in
    real space projection operators read in
  non local Contribution for L=           1  read in
    real space projection operators read in
    PAW grid and wavefunctions read in
 
   number of l-projection  operators is LMAX  =           6
   number of lm-projection operators is LMMAX =          18
 
 Optimization of the real space projectors (new method)

 maximal supplied QI-value         = 16.25
 optimisation between [QCUT,QGAM] = [ 11.54, 23.24] = [ 37.28,151.24] Ry 
 Optimized for a Real-space Cutoff    1.45 Angstroem

   l    n(q)    QCUT    max X(q) W(low)/X(q) W(high)/X(q)  e(spline) 
   2      9    11.539    60.317    0.19E-03    0.47E-04    0.16E-06
   2      9    11.539    55.921    0.19E-03    0.48E-04    0.16E-06
   0     10    11.539    51.690    0.80E-04    0.50E-04    0.24E-06
   0     10    11.539    30.015    0.73E-04    0.45E-04    0.22E-06
   1     10    11.539    18.849    0.87E-04    0.16E-03    0.71E-07
   1     10    11.539    14.624    0.73E-04    0.13E-03    0.64E-07
 Optimization of the real space projectors (new method)

 maximal supplied QI-value         = 16.25
 optimisation between [QCUT,QGAM] = [ 11.54, 23.24] = [ 37.28,151.24] Ry 
 Optimized for a Real-space Cutoff    1.53 Angstroem

   l    n(q)    QCUT    max X(q) W(low)/X(q) W(high)/X(q)  e(spline) 
   2     10    11.539    80.901    0.11E-03    0.14E-03    0.21E-06
   2     10    11.539    75.754    0.11E-03    0.14E-03    0.22E-06
   0     11    11.539    58.752    0.52E-04    0.18E-04    0.33E-06
   0     11    11.539    30.679    0.44E-04    0.16E-04    0.30E-06
   1     10    11.539    17.977    0.53E-04    0.29E-04    0.13E-06
   1     10    11.539    13.559    0.44E-04    0.25E-04    0.11E-06
  PAW_PBE Ni 02Aug2007                  :
 energy of atom  1       EATOM=-1077.6739
 kinetic energy error for atom=    0.0030 (will be added to EATOM!!)
  PAW_PBE Fe 06Sep2000                  :
 energy of atom  2       EATOM= -594.3153
 kinetic energy error for atom=    0.0026 (will be added to EATOM!!)
 
 
 POSCAR: POSCAR                                  
  positions in direct lattice
  velocities in cartesian coordinates
 exchange correlation table for  LEXCH =        8
   RHO(1)=    0.500       N(1)  =     2000
   RHO(2)=  100.500       N(2)  =     4000
 


--------------------------------------------------------------------------------------------------------


 ion  position               nearest neighbor table
   1  0.999  0.001  0.994-  19 2.50  24 2.50  26 2.51   5 2.52  30 2.52  28 2.52  44 2.53   2 2.53
                             4 2.53  17 2.54  47 2.54  25 2.54
   2  0.248  0.999  0.999-  37 2.47  27 2.48  44 2.49  28 2.50   3 2.51   6 2.52  22 2.52   5 2.52
                            17 2.53   1 2.53   8 2.56  45 2.56
   3  0.499  0.002  0.998-  27 2.49  23 2.50  25 2.51   2 2.51   8 2.52  10 2.52  29 2.52   7 2.53
                            37 2.54  38 2.54  45 2.55  46 2.57
   4  0.998  0.251  0.999-  26 2.48  31 2.49  16 2.50  25 2.50  11 2.50   7 2.53  32 2.53   1 2.53
                            30 2.53   5 2.55  35 2.55   9 2.55
   5  0.249  0.249  0.996-  26 2.48  27 2.48  28 2.50  35 2.50   1 2.52  31 2.52   2 2.52  34 2.54
                             6 2.54  14 2.54   4 2.55  33 2.55
   6  0.334  0.165  0.331-  27 2.48  34 2.50  13 2.51   8 2.51  45 2.52   2 2.52  28 2.52  14 2.52
                            29 2.54  44 2.54  26 2.54   5 2.54
   7  0.749  0.253  0.003-  29 2.47  12 2.49  36 2.49  11 2.51  25 2.51  15 2.51   4 2.53   3 2.53
                            10 2.54  27 2.55   9 2.55  16 2.55
   8  0.418  0.084  0.662-  45 2.49  28 2.49   6 2.51  27 2.51  14 2.51   3 2.52  10 2.52  23 2.53
                            22 2.53  29 2.53  36 2.56   2 2.56
   9  0.832  0.166  0.337-  30 2.48  32 2.48  29 2.49  10 2.50  25 2.51  46 2.51  15 2.52  16 2.52
                            26 2.54   7 2.55   4 2.55  47 2.55
  10  0.668  0.085  0.668-  46 2.49   9 2.50  25 2.51  30 2.51  36 2.51   8 2.52   3 2.52  16 2.53
                            23 2.54  29 2.54  48 2.54   7 2.54
  11  0.999  0.499  0.002-  32 2.48  40 2.50   4 2.50  31 2.51   7 2.51  16 2.52  18 2.52  37 2.52
                            17 2.53  12 2.53  15 2.54  21 2.55
  12  0.748  0.499  0.999-  33 2.48   7 2.49  42 2.49  36 2.49  13 2.52  43 2.52  21 2.52  17 2.52
                            19 2.53  11 2.53  15 2.56  27 2.57
  13  0.583  0.413  0.332-  34 2.47  29 2.49  42 2.49  14 2.49  15 2.50   6 2.51  12 2.52  27 2.54
                            36 2.54  33 2.54  43 2.55  41 2.56
  14  0.420  0.333  0.663-  34 2.48  13 2.49  27 2.51   8 2.51  28 2.52  43 2.52  33 2.52   6 2.52
                            35 2.53  20 2.54  36 2.54   5 2.54
  15  0.831  0.415  0.338-  32 2.45  42 2.47  29 2.47  36 2.47  13 2.50  16 2.51   7 2.51   9 2.52
                            21 2.52  18 2.53  11 2.54  12 2.56
  16  0.919  0.335  0.668-  32 2.47  36 2.49   4 2.50  30 2.51  15 2.51  40 2.51  11 2.52   9 2.52
                            10 2.53  21 2.54  35 2.54   7 2.55
  17  0.998  0.749  0.001-  44 2.47  37 2.48  19 2.48  24 2.50  42 2.51  21 2.52  12 2.52   2 2.53
                            11 2.53  18 2.53   1 2.54  22 2.55
  18  0.082  0.666  0.335-  32 2.49  37 2.50  42 2.50  44 2.51  22 2.52  21 2.52  11 2.52  40 2.53
                            17 2.53  15 2.53  45 2.54  39 2.54
  19  0.753  0.752  0.998-  17 2.48  48 2.49   1 2.50  47 2.51  24 2.51  43 2.52  12 2.53  33 2.54
                            41 2.54  42 2.55  38 2.57  25 2.58
  20  0.417  0.584  0.670-  35 2.49  39 2.49  33 2.50  38 2.51  43 2.52  23 2.52  48 2.53  14 2.54
                            34 2.55  41 2.55  31 2.56  40 2.57
  21  0.916  0.585  0.667-  36 2.48  24 2.48  42 2.50  43 2.50  40 2.51  17 2.52  18 2.52  15 2.52
                            12 2.52  22 2.53  16 2.54  11 2.55
  22  0.167  0.835  0.664-  24 2.48  28 2.49  45 2.49  40 2.50  18 2.52   2 2.52  37 2.53   8 2.53
                            21 2.53  23 2.54  44 2.54  17 2.55
  23  0.417  0.833  0.672-  38 2.49   3 2.50  46 2.51  40 2.52  45 2.52  20 2.52   8 2.53  39 2.53
                            10 2.54  22 2.54  48 2.54  37 2.55
  24  0.920  0.833  0.667-  22 2.48  21 2.48   1 2.50  17 2.50  19 2.51  43 2.53  28 2.54  47 2.54
                            48 2.54  44 2.55  42 2.57  30 2.57
  25  0.749  0.005  0.003-   4 2.50   9 2.51  10 2.51   7 2.51   3 2.51  48 2.54   1 2.54  47 2.55
                            46 2.55  38 2.55  30 2.57  19 2.58
  26  0.085  0.169  0.322-   5 2.48   4 2.48   1 2.51  34 2.53   9 2.54  32 2.54   6 2.54  47 2.55
                            44 2.56  30 2.56  35 2.59  28 2.61
  27  0.493  0.245  0.998-   5 2.48   2 2.48   6 2.48   3 2.49   8 2.51  14 2.51  33 2.52  13 2.54
                            29 2.54   7 2.55  12 2.57  36 2.57
  28  0.171  0.083  0.667-  22 2.49   8 2.49   2 2.50   5 2.50  14 2.52   6 2.52   1 2.52  24 2.54
                            35 2.57  44 2.58  30 2.58  26 2.61
  29  0.588  0.169  0.330-   7 2.47  15 2.47   9 2.49  13 2.49  46 2.51   3 2.52   8 2.53  10 2.54
                             6 2.54  27 2.54  36 2.55  45 2.56
  30  0.917  0.086  0.662-   9 2.48  16 2.51  10 2.51   1 2.52  48 2.53   4 2.53  47 2.54  35 2.55
                            26 2.56  25 2.57  24 2.57  28 2.58
  31  0.246  0.497  0.005-   4 2.49  11 2.51  35 2.51   5 2.52  32 2.53  40 2.54  39 2.54  34 2.54
                            38 2.55  20 2.56  33 2.58  37 2.59
  32  0.074  0.415  0.335-  15 2.45  16 2.47  11 2.48   9 2.48  18 2.49   4 2.53  31 2.53  26 2.54
                            39 2.55  35 2.56  40 2.58  34 2.67
  33  0.503  0.500  0.995-  12 2.48  43 2.49  20 2.50  27 2.52  14 2.52  34 2.53  19 2.54  13 2.54
                             5 2.55  38 2.55  41 2.55  31 2.58
  34  0.339  0.415  0.333-  13 2.47  14 2.48   6 2.50  41 2.52  26 2.53  33 2.53  39 2.54  35 2.54
                             5 2.54  31 2.54  20 2.55  32 2.67
  35  0.171  0.337  0.667-  20 2.49   5 2.50  31 2.51  14 2.53  16 2.54  34 2.54   4 2.55  40 2.55
                            30 2.55  32 2.56  28 2.57  26 2.59
  36  0.673  0.336  0.669-  15 2.47  21 2.48  16 2.49  12 2.49   7 2.49  10 2.51  43 2.53  13 2.54
                            14 2.54  29 2.55   8 2.56  27 2.57
  37  0.245  0.753  0.004-   2 2.47  17 2.48  18 2.50  40 2.51  45 2.51  11 2.52  22 2.53   3 2.54
                            23 2.55  38 2.57  31 2.59  39 2.60
  38  0.498  0.750  0.001-  23 2.49  20 2.51  48 2.52  41 2.53   3 2.54  33 2.55  25 2.55  31 2.55
                            39 2.56  46 2.57  19 2.57  37 2.57
  39  0.332  0.663  0.341-  20 2.49  40 2.52  23 2.53  41 2.54  34 2.54  31 2.54  18 2.54  45 2.55
                            32 2.55  46 2.56  38 2.56  37 2.60
  40  0.165  0.586  0.673-  11 2.50  22 2.50  37 2.51  21 2.51  16 2.51  23 2.52  39 2.52  18 2.53
                            31 2.54  35 2.55  20 2.57  32 2.58
  41  0.586  0.668  0.332-  47 2.50  43 2.52  34 2.52  42 2.52  38 2.53  39 2.54  19 2.54  48 2.54
                            46 2.55  20 2.55  33 2.55  13 2.56
  42  0.831  0.659  0.332-  15 2.47  12 2.49  13 2.49  21 2.50  18 2.50  17 2.51  43 2.52  41 2.52
                            19 2.55  44 2.56  47 2.57  24 2.57
  43  0.668  0.584  0.666-  33 2.49  21 2.50  48 2.51  42 2.52  19 2.52  12 2.52  14 2.52  41 2.52
                            20 2.52  24 2.53  36 2.53  13 2.55
  44  0.082  0.914  0.325-  17 2.47   2 2.49  47 2.51  18 2.51   1 2.53  45 2.53  22 2.54   6 2.54
                            24 2.55  42 2.56  26 2.56  28 2.58
  45  0.334  0.916  0.337-   8 2.49  22 2.49  46 2.49  37 2.51   6 2.52  23 2.52  44 2.53  18 2.54
                             3 2.55  39 2.55   2 2.56  29 2.56
  46  0.582  0.919  0.340-  10 2.49  45 2.49  29 2.51  23 2.51   9 2.51  48 2.54  25 2.55  41 2.55
                            39 2.56  38 2.57  47 2.57   3 2.57
  47  0.834  0.914  0.331-  41 2.50  44 2.51  19 2.51  30 2.54   1 2.54  24 2.54  25 2.55   9 2.55
                            48 2.55  26 2.55  46 2.57  42 2.57
  48  0.668  0.834  0.671-  19 2.49  43 2.51  38 2.52  30 2.53  20 2.53  46 2.54  23 2.54  25 2.54
                            10 2.54  41 2.54  24 2.54  47 2.55
 

IMPORTANT INFORMATION: All symmetrisations will be switched off!
NOSYMM: (Re-)initialisation of all symmetry stuff for point group C_1.

 
 

Automatic generation of k-mesh.
 generate k-points for:    4    4    6
Space group operators:
 irot       det(A)        alpha          n_x          n_y          n_z        tau_x        tau_y        tau_z
    1     1.000000     0.000000     1.000000     0.000000     0.000000     0.000000     0.000000     0.000000
 
 Subroutine IBZKPT returns following result:
 ===========================================
 
 Found     52 irreducible k-points:
 
 Following reciprocal coordinates:
            Coordinates               Weight
  0.000000  0.000000  0.000000      1.000000
  0.250000  0.000000  0.000000      2.000000
  0.500000  0.000000  0.000000      1.000000
  0.000000  0.250000  0.000000      2.000000
  0.250000  0.250000  0.000000      2.000000
  0.500000  0.250000  0.000000      2.000000
 -0.250000  0.250000  0.000000      2.000000
  0.000000  0.500000  0.000000      1.000000
  0.250000  0.500000  0.000000      2.000000
  0.500000  0.500000  0.000000      1.000000
  0.000000  0.000000  0.166667      2.000000
  0.250000  0.000000  0.166667      2.000000
  0.500000  0.000000  0.166667      2.000000
 -0.250000  0.000000  0.166667      2.000000
  0.000000  0.250000  0.166667      2.000000
  0.250000  0.250000  0.166667      2.000000
  0.500000  0.250000  0.166667      2.000000
 -0.250000  0.250000  0.166667      2.000000
  0.000000  0.500000  0.166667      2.000000
  0.250000  0.500000  0.166667      2.000000
  0.500000  0.500000  0.166667      2.000000
 -0.250000  0.500000  0.166667      2.000000
  0.000000 -0.250000  0.166667      2.000000
  0.250000 -0.250000  0.166667      2.000000
  0.500000 -0.250000  0.166667      2.000000
 -0.250000 -0.250000  0.166667      2.000000
  0.000000  0.000000  0.333333      2.000000
  0.250000  0.000000  0.333333      2.000000
  0.500000  0.000000  0.333333      2.000000
 -0.250000  0.000000  0.333333      2.000000
  0.000000  0.250000  0.333333      2.000000
  0.250000  0.250000  0.333333      2.000000
  0.500000  0.250000  0.333333      2.000000
 -0.250000  0.250000  0.333333      2.000000
  0.000000  0.500000  0.333333      2.000000
  0.250000  0.500000  0.333333      2.000000
  0.500000  0.500000  0.333333      2.000000
 -0.250000  0.500000  0.333333      2.000000
  0.000000 -0.250000  0.333333      2.000000
  0.250000 -0.250000  0.333333      2.000000
  0.500000 -0.250000  0.333333      2.000000
 -0.250000 -0.250000  0.333333      2.000000
  0.000000  0.000000  0.500000      1.000000
  0.250000  0.000000  0.500000      2.000000
  0.500000  0.000000  0.500000      1.000000
  0.000000  0.250000  0.500000      2.000000
  0.250000  0.250000  0.500000      2.000000
  0.500000  0.250000  0.500000      2.000000
 -0.250000  0.250000  0.500000      2.000000
  0.000000  0.500000  0.500000      1.000000
  0.250000  0.500000  0.500000      2.000000
  0.500000  0.500000  0.500000      1.000000
 
 Following cartesian coordinates:
            Coordinates               Weight
  0.000000  0.000000 -0.000000      1.000000
  0.083333 -0.041667 -0.041667      2.000000
  0.166667 -0.083333 -0.083333      1.000000
  0.041667  0.041667 -0.083333      2.000000
  0.125000  0.000000 -0.125000      2.000000
  0.208333 -0.041667 -0.166667      2.000000
 -0.041667  0.083333 -0.041667      2.000000
  0.083333  0.083333 -0.166667      1.000000
  0.166667  0.041667 -0.208333      2.000000
  0.250000  0.000000 -0.250000      1.000000
  0.055556  0.055556  0.055556      2.000000
  0.138889  0.013889  0.013889      2.000000
  0.222222 -0.027778 -0.027778      2.000000
 -0.027778  0.097222  0.097222      2.000000
  0.097222  0.097222 -0.027778      2.000000
  0.180556  0.055556 -0.069444      2.000000
  0.263889  0.013889 -0.111111      2.000000
  0.013889  0.138889  0.013889      2.000000
  0.138889  0.138889 -0.111111      2.000000
  0.222222  0.097222 -0.152778      2.000000
  0.305556  0.055556 -0.194444      2.000000
  0.055556  0.180556 -0.069444      2.000000
  0.013889  0.013889  0.138889      2.000000
  0.097222 -0.027778  0.097222      2.000000
  0.180556 -0.069444  0.055556      2.000000
 -0.069444  0.055556  0.180556      2.000000
  0.111111  0.111111  0.111111      2.000000
  0.194444  0.069444  0.069444      2.000000
  0.277778  0.027778  0.027778      2.000000
  0.027778  0.152778  0.152778      2.000000
  0.152778  0.152778  0.027778      2.000000
  0.236111  0.111111 -0.013889      2.000000
  0.319444  0.069444 -0.055556      2.000000
  0.069444  0.194444  0.069444      2.000000
  0.194444  0.194444 -0.055556      2.000000
  0.277778  0.152778 -0.097222      2.000000
  0.361111  0.111111 -0.138889      2.000000
  0.111111  0.236111 -0.013889      2.000000
  0.069444  0.069444  0.194444      2.000000
  0.152778  0.027778  0.152778      2.000000
  0.236111 -0.013889  0.111111      2.000000
 -0.013889  0.111111  0.236111      2.000000
  0.166667  0.166667  0.166667      1.000000
  0.250000  0.125000  0.125000      2.000000
  0.333333  0.083333  0.083333      1.000000
  0.208333  0.208333  0.083333      2.000000
  0.291667  0.166667  0.041667      2.000000
  0.375000  0.125000 -0.000000      2.000000
  0.125000  0.250000  0.125000      2.000000
  0.250000  0.250000 -0.000000      1.000000
  0.333333  0.208333 -0.041667      2.000000
  0.416667  0.166667 -0.083333      1.000000
 
 TETIRR: Found    288 inequivalent tetrahedra from      576


--------------------------------------------------------------------------------------------------------




 Dimension of arrays:
   k-points           NKPTS =     52   k-points in BZ     NKDIM =     52   number of bands    NBANDS=    357
   number of dos      NEDOS =    301   number of ions     NIONS =     48
   non local maximal  LDIM  =      6   non local SUM 2l+1 LMDIM =     18
   total plane-waves  NPLWV = 307200
   max r-space proj   IRMAX =   8547   max aug-charges    IRDMAX=  20223
   dimension x,y,z NGX =    80 NGY =   80 NGZ =   48
   dimension x,y,z NGXF=   160 NGYF=  160 NGZF=   96
   support grid    NGXF=   160 NGYF=  160 NGZF=   96
   ions per type =              24  24
   NGX,Y,Z   is equivalent  to a cutoff of  13.17, 13.17, 12.90 a.u.
   NGXF,Y,Z  is equivalent  to a cutoff of  26.34, 26.34, 25.80 a.u.

 SYSTEM =  SQS-NiFe                                
 POSCAR =  POSCAR                                  

 Startparameter for this run:
   NWRITE =      2    write-flag & timer
   PREC   = accura    normal or accurate (medium, high low for compatibility)
   ISTART =      0    job   : 0-new  1-cont  2-samecut
   ICHARG =     11    charge: 1-file 2-atom 10-const
   ISPIN  =      2    spin polarized calculation?
   LNONCOLLINEAR =      F non collinear calculations
   LSORBIT =      F    spin-orbit coupling
   INIWAV =      1    electr: 0-lowe 1-rand  2-diag
   LASPH  =      F    aspherical Exc in radial PAW
   METAGGA=      F    non-selfconsistent MetaGGA calc.

 Electronic Relaxation 1
   ENCUT  =  520.0 eV  38.22 Ry    6.18 a.u.  18.78 18.78 11.50*2*pi/ulx,y,z
   ENINI  =  520.0     initial cutoff
   ENAUG  =  544.6 eV  augmentation charge cutoff
   NELM   =    200;   NELMIN=  2; NELMDL= -5     # of ELM steps 
   EDIFF  = 0.1E-05   stopping-criterion for ELM
   LREAL  =      T    real-space projection
   NLSPLINE    = F    spline interpolate recip. space projectors
   LCOMPAT=      F    compatible to vasp.4.4
   GGA_COMPAT  = T    GGA compatible to vasp.4.4-vasp.4.6
   LMAXPAW     = -100 max onsite density
   LMAXMIX     =    2 max onsite mixed and CHGCAR
   VOSKOWN=      0    Vosko Wilk Nusair interpolation
   ROPT   =   -0.00025  -0.00025
 Ionic relaxation
   EDIFFG = -.2E-01   stopping-criterion for IOM
   NSW    =      0    number of steps for IOM
   NBLOCK =      1;   KBLOCK =      1    inner block; outer block 
   IBRION =     -1    ionic relax: 0-MD 1-quasi-New 2-CG
   NFREE  =      0    steps in history (QN), initial steepest desc. (CG)
   ISIF   =      2    stress and relaxation
   IWAVPR =     10    prediction:  0-non 1-charg 2-wave 3-comb
   ISYM   =      0    0-nonsym 1-usesym 2-fastsym
   LCORR  =      T    Harris-Foulkes like correction to forces

   POTIM  = 0.5000    time-step for ionic-motion
   TEIN   =    0.0    initial temperature
   TEBEG  =    0.0;   TEEND  =   0.0 temperature during run
   SMASS  =  -3.00    Nose mass-parameter (am)
   estimated Nose-frequenzy (Omega)   =  0.10E-29 period in steps =****** mass=  -0.233E-26a.u.
   SCALEE = 1.0000    scale energy and forces
   NPACO  =    256;   APACO  = 16.0  distance and # of slots for P.C.
   PSTRESS=    0.0 pullay stress

  Mass of Ions in am
   POMASS =  58.69 55.85
  Ionic Valenz
   ZVAL   =  10.00  8.00
  Atomic Wigner-Seitz radii
   RWIGS  =  -1.00 -1.00
  virtual crystal weights 
   VCA    =   1.00  1.00
   NELECT =     432.0000    total number of electrons
   NUPDOWN=      -1.0000    fix difference up-down

 DOS related values:
   EMIN   =  10.00;   EMAX   =-10.00  energy-range for DOS
   EFERMI =   0.00
   ISMEAR =    -5;   SIGMA  =   0.20  broadening in eV -4-tet -1-fermi 0-gaus

 Electronic relaxation 2 (details)
   IALGO  =     68    algorithm
   LDIAG  =      T    sub-space diagonalisation (order eigenvalues)
   LSUBROT=      F    optimize rotation matrix (better conditioning)
   TURBO    =      0    0=normal 1=particle mesh
   IRESTART =      0    0=no restart 2=restart with 2 vectors
   NREBOOT  =      0    no. of reboots
   NMIN     =      0    reboot dimension
   EREF     =   0.00    reference energy to select bands
   IMIX   =      4    mixing-type and parameters
     AMIX     =   0.40;   BMIX     =  1.00
     AMIX_MAG =   1.60;   BMIX_MAG =  1.00
     AMIN     =   0.10
     WC   =   100.;   INIMIX=   1;  MIXPRE=   1;  MAXMIX= -45

 Intra band minimization:
   WEIMIN = 0.0000     energy-eigenvalue tresh-hold
   EBREAK =  0.70E-09  absolut break condition
   DEPER  =   0.30     relativ break condition  

   TIME   =   0.40     timestep for ELM

  volume/ion in A,a.u.               =      11.38        76.83
  Fermi-wavevector in a.u.,A,eV,Ry     =   1.513744  2.860562 31.176681  2.291421
  Thomas-Fermi vector in A             =   2.623494
 
 Write flags
   LWAVE        =      F    write WAVECAR
   LDOWNSAMPLE  =      F    k-point downsampling of WAVECAR
   LCHARG       =      F    write CHGCAR
   LVTOT        =      F    write LOCPOT, total local potential
   LVHAR        =      F    write LOCPOT, Hartree potential only
   LELF         =      F    write electronic localiz. function (ELF)
   LORBIT       =     11    0 simple, 1 ext, 2 COOP (PROOUT), +10 PAW based schemes


 Dipole corrections
   LMONO  =      F    monopole corrections only (constant potential shift)
   LDIPOL =      F    correct potential (dipole corrections)
   IDIPOL =      0    1-x, 2-y, 3-z, 4-all directions 
   EPSILON=  1.0000000 bulk dielectric constant

 Exchange correlation treatment:
   GGA     =    --    GGA type
   LEXCH   =     8    internal setting for exchange type
   VOSKOWN=      0    Vosko Wilk Nusair interpolation
   LHFCALC =     F    Hartree Fock is set to
   LHFONE  =     F    Hartree Fock one center treatment
   AEXX    =    0.0000 exact exchange contribution

 Linear response parameters
   LEPSILON=     F    determine dielectric tensor
   LRPA    =     F    only Hartree local field effects (RPA)
   LNABLA  =     F    use nabla operator in PAW spheres
   LVEL    =     F    velocity operator in full k-point grid
   LINTERFAST=   F  fast interpolation
   KINTER  =     0    interpolate to denser k-point grid
   CSHIFT  =0.1000    complex shift for real part using Kramers Kronig
   OMEGAMAX=  -1.0    maximum frequency
   DEG_THRESHOLD= 0.2000000E-02 threshold for treating states as degnerate
   RTIME   =   -0.100 relaxation time in fs
  (WPLASMAI=    0.000 imaginary part of plasma frequency in eV, 0.658/RTIME)
   DFIELD  = 0.0000000 0.0000000 0.0000000 field for delta impulse in time
 
 Orbital magnetization related:
   ORBITALMAG=     F  switch on orbital magnetization
   LCHIMAG   =     F  perturbation theory with respect to B field
   DQ        =  0.001000  dq finite difference perturbation B field
   LLRAUG    =     F  two centre corrections for induced B field



--------------------------------------------------------------------------------------------------------


 Static calculation
 charge density and potential remain constant during run
 spin polarized calculation
 RMM-DIIS sequential band-by-band and
  variant of blocked Davidson during initial phase
 perform sub-space diagonalisation
    before iterative eigenvector-optimisation
 no mixing
 using additional bands          141
 real space projection scheme for non local part
 use partial core corrections
 calculate Harris-corrections to forces 
   (improved forces if not selfconsistent)
 use gradient corrections 
 WARNING: stress and forces are not correct
  (second derivative of E(xc) not defined)
 use of overlap-Matrix (Vanderbilt PP)
 Fermi weights with tetrahedron method with Bloechl corrections


--------------------------------------------------------------------------------------------------------


  energy-cutoff  :      520.00
  volume of cell :      546.45
      direct lattice vectors                 reciprocal lattice vectors
     7.142000000 -7.142000000  0.000000000     0.093344535 -0.046672267 -0.046672267
     0.000000000  7.142000000 -7.142000000     0.046672267  0.046672267 -0.093344535
     3.571000000  3.571000000  3.571000000     0.093344535  0.093344535  0.093344535

  length of vectors
    10.100313262 10.100313262  6.185153434     0.114323240  0.114323240  0.161677477


 
 k-points in units of 2pi/SCALE and weight: read from INCAR                         
   0.00000000  0.00000000 -0.00000000       0.010
   0.08333333 -0.04166667 -0.04166667       0.021
   0.16666667 -0.08333333 -0.08333333       0.010
   0.04166667  0.04166667 -0.08333333       0.021
   0.12500000  0.00000000 -0.12500000       0.021
   0.20833333 -0.04166667 -0.16666667       0.021
  -0.04166667  0.08333333 -0.04166667       0.021
   0.08333333  0.08333333 -0.16666667       0.010
   0.16666667  0.04166667 -0.20833333       0.021
   0.25000000  0.00000000 -0.25000000       0.010
   0.05555556  0.05555556  0.05555556       0.021
   0.13888889  0.01388889  0.01388889       0.021
   0.22222222 -0.02777778 -0.02777778       0.021
  -0.02777778  0.09722222  0.09722222       0.021
   0.09722222  0.09722222 -0.02777778       0.021
   0.18055556  0.05555556 -0.06944444       0.021
   0.26388889  0.01388889 -0.11111111       0.021
   0.01388889  0.13888889  0.01388889       0.021
   0.13888889  0.13888889 -0.11111111       0.021
   0.22222222  0.09722222 -0.15277778       0.021
   0.30555556  0.05555556 -0.19444444       0.021
   0.05555556  0.18055556 -0.06944444       0.021
   0.01388889  0.01388889  0.13888889       0.021
   0.09722222 -0.02777778  0.09722222       0.021
   0.18055556 -0.06944444  0.05555556       0.021
  -0.06944444  0.05555556  0.18055556       0.021
   0.11111111  0.11111111  0.11111111       0.021
   0.19444444  0.06944444  0.06944444       0.021
   0.27777778  0.02777778  0.02777778       0.021
   0.02777778  0.15277778  0.15277778       0.021
   0.15277778  0.15277778  0.02777778       0.021
   0.23611111  0.11111111 -0.01388889       0.021
   0.31944444  0.06944444 -0.05555556       0.021
   0.06944444  0.19444444  0.06944444       0.021
   0.19444444  0.19444444 -0.05555556       0.021
   0.27777778  0.15277778 -0.09722222       0.021
   0.36111111  0.11111111 -0.13888889       0.021
   0.11111111  0.23611111 -0.01388889       0.021
   0.06944444  0.06944444  0.19444444       0.021
   0.15277778  0.02777778  0.15277778       0.021
   0.23611111 -0.01388889  0.11111111       0.021
  -0.01388889  0.11111111  0.23611111       0.021
   0.16666667  0.16666667  0.16666667       0.010
   0.25000000  0.12500000  0.12500000       0.021
   0.33333333  0.08333333  0.08333333       0.010
   0.20833333  0.20833333  0.08333333       0.021
   0.29166667  0.16666667  0.04166667       0.021
   0.37500000  0.12500000 -0.00000000       0.021
   0.12500000  0.25000000  0.12500000       0.021
   0.25000000  0.25000000 -0.00000000       0.010
   0.33333333  0.20833333 -0.04166667       0.021
   0.41666667  0.16666667 -0.08333333       0.010
 
 k-points in reciprocal lattice and weights: read from INCAR                         
   0.00000000  0.00000000  0.00000000       0.010
   0.25000000  0.00000000  0.00000000       0.021
   0.50000000  0.00000000  0.00000000       0.010
   0.00000000  0.25000000  0.00000000       0.021
   0.25000000  0.25000000  0.00000000       0.021
   0.50000000  0.25000000  0.00000000       0.021
  -0.25000000  0.25000000  0.00000000       0.021
   0.00000000  0.50000000  0.00000000       0.010
   0.25000000  0.50000000  0.00000000       0.021
   0.50000000  0.50000000  0.00000000       0.010
   0.00000000  0.00000000  0.16666667       0.021
   0.25000000  0.00000000  0.16666667       0.021
   0.50000000  0.00000000  0.16666667       0.021
  -0.25000000  0.00000000  0.16666667       0.021
   0.00000000  0.25000000  0.16666667       0.021
   0.25000000  0.25000000  0.16666667       0.021
   0.50000000  0.25000000  0.16666667       0.021
  -0.25000000  0.25000000  0.16666667       0.021
   0.00000000  0.50000000  0.16666667       0.021
   0.25000000  0.50000000  0.16666667       0.021
   0.50000000  0.50000000  0.16666667       0.021
  -0.25000000  0.50000000  0.16666667       0.021
   0.00000000 -0.25000000  0.16666667       0.021
   0.25000000 -0.25000000  0.16666667       0.021
   0.50000000 -0.25000000  0.16666667       0.021
  -0.25000000 -0.25000000  0.16666667       0.021
   0.00000000  0.00000000  0.33333333       0.021
   0.25000000  0.00000000  0.33333333       0.021
   0.50000000  0.00000000  0.33333333       0.021
  -0.25000000  0.00000000  0.33333333       0.021
   0.00000000  0.25000000  0.33333333       0.021
   0.25000000  0.25000000  0.33333333       0.021
   0.50000000  0.25000000  0.33333333       0.021
  -0.25000000  0.25000000  0.33333333       0.021
   0.00000000  0.50000000  0.33333333       0.021
   0.25000000  0.50000000  0.33333333       0.021
   0.50000000  0.50000000  0.33333333       0.021
  -0.25000000  0.50000000  0.33333333       0.021
   0.00000000 -0.25000000  0.33333333       0.021
   0.25000000 -0.25000000  0.33333333       0.021
   0.50000000 -0.25000000  0.33333333       0.021
  -0.25000000 -0.25000000  0.33333333       0.021
   0.00000000  0.00000000  0.50000000       0.010
   0.25000000  0.00000000  0.50000000       0.021
   0.50000000  0.00000000  0.50000000       0.010
   0.00000000  0.25000000  0.50000000       0.021
   0.25000000  0.25000000  0.50000000       0.021
   0.50000000  0.25000000  0.50000000       0.021
  -0.25000000  0.25000000  0.50000000       0.021
   0.00000000  0.50000000  0.50000000       0.010
   0.25000000  0.50000000  0.50000000       0.021
   0.50000000  0.50000000  0.50000000       0.010
 
 position of ions in fractional coordinates (direct lattice) 
   0.99904265  0.00064227  0.99370520
   0.24849107  0.99862824  0.99896811
   0.49902457  0.00192702  0.99811239
   0.99813936  0.25067359  0.99858235
   0.24921521  0.24886210  0.99598295
   0.33446849  0.16514649  0.33084910
   0.74893475  0.25278116  0.00281676
   0.41837538  0.08393963  0.66243229
   0.83203205  0.16588383  0.33720463
   0.66797040  0.08472263  0.66784463
   0.99908587  0.49910803  0.00235378
   0.74816914  0.49871087  0.99893796
   0.58310171  0.41320398  0.33248045
   0.41961001  0.33337142  0.66250709
   0.83119666  0.41475866  0.33794681
   0.91855922  0.33501604  0.66782478
   0.99765759  0.74896938  0.00070614
   0.08195110  0.66570420  0.33468682
   0.75346518  0.75172848  0.99750405
   0.41737268  0.58352435  0.66970407
   0.91550782  0.58461943  0.66693608
   0.16682874  0.83490763  0.66397359
   0.41715304  0.83338794  0.67162322
   0.91985145  0.83263675  0.66683234
   0.74918160  0.00453836  0.00260461
   0.08475828  0.16932674  0.32232280
   0.49319008  0.24543954  0.99767441
   0.17139612  0.08339263  0.66669588
   0.58776094  0.16931254  0.33023748
   0.91693091  0.08581532  0.66237270
   0.24596406  0.49669344  0.00461950
   0.07438391  0.41509612  0.33457500
   0.50297282  0.49962090  0.99521781
   0.33917228  0.41514457  0.33300174
   0.17081393  0.33724166  0.66719918
   0.67264722  0.33598079  0.66891140
   0.24490545  0.75270005  0.00371561
   0.49840313  0.74988260  0.00086577
   0.33208545  0.66262092  0.34116495
   0.16470557  0.58627149  0.67347154
   0.58579436  0.66826103  0.33248656
   0.83088122  0.65877478  0.33162359
   0.66762536  0.58426201  0.66614649
   0.08235464  0.91427086  0.32494122
   0.33394415  0.91584294  0.33734239
   0.58231568  0.91865186  0.34000490
   0.83419442  0.91449412  0.33133394
   0.66841427  0.83351063  0.67095494
 
 position of ions in cartesian coordinates  (Angst):
  10.68368392 -3.58205429  3.54393422
   5.34203834  8.92479482 -3.56488774
   7.12829279  0.01398867  3.55049656
  10.69464885 -1.77246294  1.77562680
   5.33655017  3.55413317  1.77928199
   3.57023612 -0.02783561  0.00198590
   5.35895061 -3.53347032 -1.79530438
   5.35358269 -0.02299437  1.76604885
   7.14653068 -3.55347287  0.01941545
   7.15551776 -1.78068236  1.77978415
   7.14387660 -3.56243637 -3.55622424
   8.91063149  1.78557649  0.00541442
   5.35180009 -0.02612187 -1.76381515
   5.36266752  1.74989681 -0.01512585
   7.14321462 -1.76739222 -1.75539827
   8.94515221 -1.78286312 -0.00788228
   7.12779214 -1.77360964 -5.34661767
   1.78046143  5.36433123 -3.55929271
   8.94333528  3.54968343 -1.80675781
   5.37238890  3.57816848 -1.77601772
   8.92018563  0.01842385 -1.79372324
   3.56254054  7.14246916 -3.59186061
   5.37767354  5.37111621 -3.55369016
   8.95083739  1.75837087 -3.56543335
   5.35995604 -5.30894098 -0.02311189
   1.75635834  1.75500266 -0.05831690
   7.08505888  1.79326098  1.80976609
   3.60488207  1.75225001  1.78518082
   5.37706666 -1.80928044 -0.02995213
   8.91405346 -3.57049463  1.75243987
   1.77317154  1.80720553 -3.53088833
   1.72601721  3.62813395 -1.76984919
   7.14615466  3.52998343 -0.01436968
   3.61151765  1.73174330 -1.77581329
   3.60252134  3.57119514 -0.02601163
   7.19272904 -0.01578903 -0.01089217
   1.76238317  3.63993750 -5.36251530
   3.56268679  1.79915805 -5.35256983
   3.59005433  3.57898430 -3.51413856
   3.58129406  5.41579067 -1.78218411
   5.37105280  1.77628644 -3.58541077
   7.11838146 -0.04495634 -3.52074165
   7.14698942  1.78342804 -1.79399016
   1.74854191  7.10191073 -5.36935738
   3.58967883  5.36057083 -5.33630063
   5.37305612  3.61627046 -5.34685406
   7.14101004  1.75669396 -5.34812350
   7.16979483  3.57509826 -3.55695280
 


--------------------------------------------------------------------------------------------------------


 k-point  1 :   0.0000 0.0000 0.0000  plane waves:   14693
 k-point  2 :   0.2500 0.0000 0.0000  plane waves:   14717
 k-point  3 :   0.5000 0.0000 0.0000  plane waves:   14686
 k-point  4 :   0.0000 0.2500 0.0000  plane waves:   14717
 k-point  5 :   0.2500 0.2500 0.0000  plane waves:   14721
 k-point  6 :   0.5000 0.2500 0.0000  plane waves:   14721
 k-point  7 :  -0.2500 0.2500 0.0000  plane waves:   14717
 k-point  8 :   0.0000 0.5000 0.0000  plane waves:   14686
 k-point  9 :   0.2500 0.5000 0.0000  plane waves:   14721
 k-point 10 :   0.5000 0.5000 0.0000  plane waves:   14686
 k-point 11 :   0.0000 0.0000 0.1667  plane waves:   14729
 k-point 12 :   0.2500 0.0000 0.1667  plane waves:   14717
 k-point 13 :   0.5000 0.0000 0.1667  plane waves:   14742
 k-point 14 :  -0.2500 0.0000 0.1667  plane waves:   14717
 k-point 15 :   0.0000 0.2500 0.1667  plane waves:   14717
 k-point 16 :   0.2500 0.2500 0.1667  plane waves:   14723
 k-point 17 :   0.5000 0.2500 0.1667  plane waves:   14723
 k-point 18 :  -0.2500 0.2500 0.1667  plane waves:   14717
 k-point 19 :   0.0000 0.5000 0.1667  plane waves:   14742
 k-point 20 :   0.2500 0.5000 0.1667  plane waves:   14723
 k-point 21 :   0.5000 0.5000 0.1667  plane waves:   14742
 k-point 22 :  -0.2500 0.5000 0.1667  plane waves:   14723
 k-point 23 :   0.0000-0.2500 0.1667  plane waves:   14717
 k-point 24 :   0.2500-0.2500 0.1667  plane waves:   14717
 k-point 25 :   0.5000-0.2500 0.1667  plane waves:   14723
 k-point 26 :  -0.2500-0.2500 0.1667  plane waves:   14723
 k-point 27 :   0.0000 0.0000 0.3333  plane waves:   14693
 k-point 28 :   0.2500 0.0000 0.3333  plane waves:   14699
 k-point 29 :   0.5000 0.0000 0.3333  plane waves:   14716
 k-point 30 :  -0.2500 0.0000 0.3333  plane waves:   14699
 k-point 31 :   0.0000 0.2500 0.3333  plane waves:   14699
 k-point 32 :   0.2500 0.2500 0.3333  plane waves:   14718
 k-point 33 :   0.5000 0.2500 0.3333  plane waves:   14718
 k-point 34 :  -0.2500 0.2500 0.3333  plane waves:   14699
 k-point 35 :   0.0000 0.5000 0.3333  plane waves:   14716
 k-point 36 :   0.2500 0.5000 0.3333  plane waves:   14718
 k-point 37 :   0.5000 0.5000 0.3333  plane waves:   14716
 k-point 38 :  -0.2500 0.5000 0.3333  plane waves:   14718
 k-point 39 :   0.0000-0.2500 0.3333  plane waves:   14699
 k-point 40 :   0.2500-0.2500 0.3333  plane waves:   14699
 k-point 41 :   0.5000-0.2500 0.3333  plane waves:   14718
 k-point 42 :  -0.2500-0.2500 0.3333  plane waves:   14718
 k-point 43 :   0.0000 0.0000 0.5000  plane waves:   14748
 k-point 44 :   0.2500 0.0000 0.5000  plane waves:   14690
 k-point 45 :   0.5000 0.0000 0.5000  plane waves:   14652
 k-point 46 :   0.0000 0.2500 0.5000  plane waves:   14690
 k-point 47 :   0.2500 0.2500 0.5000  plane waves:   14660
 k-point 48 :   0.5000 0.2500 0.5000  plane waves:   14660
 k-point 49 :  -0.2500 0.2500 0.5000  plane waves:   14690
 k-point 50 :   0.0000 0.5000 0.5000  plane waves:   14652
 k-point 51 :   0.2500 0.5000 0.5000  plane waves:   14660
 k-point 52 :   0.5000 0.5000 0.5000  plane waves:   14652

 maximum and minimum number of plane-waves per node :       945      895

 maximum number of plane-waves:     14748
 maximum index in each direction: 
   IXMAX=   19   IYMAX=   19   IZMAX=   11
   IXMIN=  -19   IYMIN=  -19   IZMIN=  -12


 real space projection operators:
  total allocation   :      51104.67 KBytes
  max/ min on nodes  :       3219.61       3177.00


 parallel 3D FFT for wavefunctions:
    minimum data exchange during FFTs selected (reduces bandwidth)
 parallel 3D FFT for charge:
    minimum data exchange during FFTs selected (reduces bandwidth)


 total amount of memory used by VASP MPI-rank0   247962. kBytes
=======================================================================

   base      :      30000. kBytes
   nonlr-proj:      10907. kBytes
   fftplans  :       2600. kBytes
   grid      :       6545. kBytes
   one-center:         93. kBytes
   wavefun   :     197817. kBytes
 
     INWAV:  cpu time    0.0010: real time    0.0001
 initial charge density was supplied:
 number of electron     432.0000025 magnetization      78.5581673
 keeping initial charge density in first step


--------------------------------------------------------------------------------------------------------


 Maximum index for non-local projection operator          597
 Maximum index for augmentation-charges         1156 (set IRDMAX)


--------------------------------------------------------------------------------------------------------


 First call to EWALD:  gamma=   0.217
 Maximum number of real-space cells 3x 3x 3
 Maximum number of reciprocal cells 3x 3x 2

    FEWALD:  cpu time    0.0030: real time    0.0053


--------------------------------------- Iteration      1(   1)  ---------------------------------------


    POTLOK:  cpu time    0.0990: real time    6.0873
    SETDIJ:  cpu time    0.0200: real time    0.0264
     EDDAV:  cpu time  107.7806: real time  108.6687
 BZINTS: Fermi energy: 21.844833;432.000000 electrons
         Band energy:6306.244864;  BLOECHL correction: -0.036533
       DOS:  cpu time    0.5089: real time    0.5093
    --------------------------------------------
      LOOP:  cpu time  108.4085: real time  115.2917

 eigenvalue-minimisations  : 74256
 total energy-change (2. order) : 0.3790721E+04  (-0.1661056E+05)
 number of electron     432.0000025 magnetization      78.5581673
 augmentation part      432.0000025 magnetization      78.5581673

 Free energy of the ion-electron system (eV)
  ---------------------------------------------------
  alpha Z        PSCENC =      2606.78035498
  Ewald energy   TEWEN  =    -35946.01739387
  -Hartree energ DENC   =     -8284.13158298
  -exchange      EXHF   =         0.00000000
  -V(xc)+E(xc)   XCENC  =       847.72567931
  PAW double counting   =     44465.73496723   -46333.22268180
  entropy T*S    EENTRO =         0.00000000
  eigenvalues    EBANDS =      6306.24486440
  atomic energy  EATOM  =     40127.60640254
  Solvation  Ediel_sol  =         0.00000000
  ---------------------------------------------------
  free energy    TOTEN  =      3790.72060982 eV

  energy without entropy =     3790.72060982  energy(sigma->0) =     3790.72060982


--------------------------------------------------------------------------------------------------------




--------------------------------------- Iteration      1(   2)  ---------------------------------------


     EDDAV:  cpu time  105.8309: real time  107.2705
 BZINTS: Fermi energy:  9.788436;432.000000 electrons
         Band energy:2776.317575;  BLOECHL correction: -0.014386
       DOS:  cpu time    0.5019: real time    0.5051
    --------------------------------------------
      LOOP:  cpu time  106.3328: real time  107.7756

 eigenvalue-minimisations  : 74256
 total energy-change (2. order) :-0.3529927E+04  (-0.3246296E+04)
 number of electron     432.0000025 magnetization      78.5581673
 augmentation part      432.0000025 magnetization      78.5581673

 Free energy of the ion-electron system (eV)
  ---------------------------------------------------
  alpha Z        PSCENC =      2606.78035498
  Ewald energy   TEWEN  =    -35946.01739387
  -Hartree energ DENC   =     -8284.13158298
  -exchange      EXHF   =         0.00000000
  -V(xc)+E(xc)   XCENC  =       847.72567931
  PAW double counting   =     44465.73496723   -46333.22268180
  entropy T*S    EENTRO =         0.00000000
  eigenvalues    EBANDS =      2776.31757545
  atomic energy  EATOM  =     40127.60640254
  Solvation  Ediel_sol  =         0.00000000
  ---------------------------------------------------
  free energy    TOTEN  =       260.79332086 eV

  energy without entropy =      260.79332086  energy(sigma->0) =      260.79332086


--------------------------------------------------------------------------------------------------------




--------------------------------------- Iteration      1(   3)  ---------------------------------------


     EDDAV:  cpu time  105.1380: real time  106.6342
 BZINTS: Fermi energy:  7.568458;432.000000 electrons
         Band energy:2226.796558;  BLOECHL correction: -0.113229
       DOS:  cpu time    0.5019: real time    0.5102
    --------------------------------------------
      LOOP:  cpu time  105.6399: real time  107.1444

 eigenvalue-minimisations  : 74262
 total energy-change (2. order) :-0.5495210E+03  (-0.4298365E+03)
 number of electron     432.0000025 magnetization      78.5581673
 augmentation part      432.0000025 magnetization      78.5581673

 Free energy of the ion-electron system (eV)
  ---------------------------------------------------
  alpha Z        PSCENC =      2606.78035498
  Ewald energy   TEWEN  =    -35946.01739387
  -Hartree energ DENC   =     -8284.13158298
  -exchange      EXHF   =         0.00000000
  -V(xc)+E(xc)   XCENC  =       847.72567931
  PAW double counting   =     44465.73496723   -46333.22268180
  entropy T*S    EENTRO =         0.00000000
  eigenvalues    EBANDS =      2226.79655808
  atomic energy  EATOM  =     40127.60640254
  Solvation  Ediel_sol  =         0.00000000
  ---------------------------------------------------
  free energy    TOTEN  =      -288.72769651 eV

  energy without entropy =     -288.72769651  energy(sigma->0) =     -288.72769651


--------------------------------------------------------------------------------------------------------




--------------------------------------- Iteration      1(   4)  ---------------------------------------


     EDDAV:  cpu time  110.3182: real time  112.2956
 BZINTS: Fermi energy:  7.478948;432.000000 electrons
         Band energy:2186.769793;  BLOECHL correction: -0.125199
       DOS:  cpu time    0.4769: real time    0.4888
    --------------------------------------------
      LOOP:  cpu time  110.7952: real time  112.7844

 eigenvalue-minimisations  : 79437
 total energy-change (2. order) :-0.4002676E+02  (-0.3863244E+02)
 number of electron     432.0000025 magnetization      78.5581673
 augmentation part      432.0000025 magnetization      78.5581673

 Free energy of the ion-electron system (eV)
  ---------------------------------------------------
  alpha Z        PSCENC =      2606.78035498
  Ewald energy   TEWEN  =    -35946.01739387
  -Hartree energ DENC   =     -8284.13158298
  -exchange      EXHF   =         0.00000000
  -V(xc)+E(xc)   XCENC  =       847.72567931
  PAW double counting   =     44465.73496723   -46333.22268180
  entropy T*S    EENTRO =         0.00000000
  eigenvalues    EBANDS =      2186.76979320
  atomic energy  EATOM  =     40127.60640254
  Solvation  Ediel_sol  =         0.00000000
  ---------------------------------------------------
  free energy    TOTEN  =      -328.75446138 eV

  energy without entropy =     -328.75446138  energy(sigma->0) =     -328.75446138


--------------------------------------------------------------------------------------------------------




--------------------------------------- Iteration      1(   5)  ---------------------------------------


     EDDAV:  cpu time  128.0355: real time  129.0896
 BZINTS: Fermi energy:  7.477647;432.000000 electrons
         Band energy:2186.171370;  BLOECHL correction: -0.125224
       DOS:  cpu time    0.4909: real time    0.4914
    --------------------------------------------
      LOOP:  cpu time  128.5265: real time  129.5810

 eigenvalue-minimisations  : 96312
 total energy-change (2. order) :-0.5984232E+00  (-0.5975724E+00)
 number of electron     432.0000025 magnetization      78.5581673
 augmentation part      432.0000025 magnetization      78.5581673

 Free energy of the ion-electron system (eV)
  ---------------------------------------------------
  alpha Z        PSCENC =      2606.78035498
  Ewald energy   TEWEN  =    -35946.01739387
  -Hartree energ DENC   =     -8284.13158298
  -exchange      EXHF   =         0.00000000
  -V(xc)+E(xc)   XCENC  =       847.72567931
  PAW double counting   =     44465.73496723   -46333.22268180
  entropy T*S    EENTRO =         0.00000000
  eigenvalues    EBANDS =      2186.17137004
  atomic energy  EATOM  =     40127.60640254
  Solvation  Ediel_sol  =         0.00000000
  ---------------------------------------------------
  free energy    TOTEN  =      -329.35288454 eV

  energy without entropy =     -329.35288454  energy(sigma->0) =     -329.35288454


--------------------------------------------------------------------------------------------------------




--------------------------------------- Iteration      1(   6)  ---------------------------------------


    EDDIAG:  cpu time   16.6665: real time   16.7071
  RMM-DIIS:  cpu time   63.0624: real time   63.3678
    ORTHCH:  cpu time    4.6693: real time    4.7669
 BZINTS: Fermi energy:  7.477612;432.000000 electrons
         Band energy:2186.150403;  BLOECHL correction: -0.125225
       DOS:  cpu time    0.4909: real time    0.4923
    --------------------------------------------
      LOOP:  cpu time   84.8891: real time   85.3342

 eigenvalue-minimisations  : 81641
 total energy-change (2. order) :-0.2096703E-01  (-0.2096479E-01)
 number of electron     432.0000025 magnetization      78.5581673
 augmentation part      432.0000025 magnetization      78.5581673

 Free energy of the ion-electron system (eV)
  ---------------------------------------------------
  alpha Z        PSCENC =      2606.78035498
  Ewald energy   TEWEN  =    -35946.01739387
  -Hartree energ DENC   =     -8284.13158298
  -exchange      EXHF   =         0.00000000
  -V(xc)+E(xc)   XCENC  =       847.72567931
  PAW double counting   =     44465.73496723   -46333.22268180
  entropy T*S    EENTRO =         0.00000000
  eigenvalues    EBANDS =      2186.15040301
  atomic energy  EATOM  =     40127.60640254
  Solvation  Ediel_sol  =         0.00000000
  ---------------------------------------------------
  free energy    TOTEN  =      -329.37385157 eV

  energy without entropy =     -329.37385157  energy(sigma->0) =     -329.37385157


--------------------------------------------------------------------------------------------------------




--------------------------------------- Iteration      1(   7)  ---------------------------------------


    EDDIAG:  cpu time   16.7555: real time   17.1272
  RMM-DIIS:  cpu time   90.7272: real time   91.3900
    ORTHCH:  cpu time    4.4073: real time    4.4139
 BZINTS: Fermi energy:  7.477602;432.000000 electrons
         Band energy:2186.143837;  BLOECHL correction: -0.125226
       DOS:  cpu time    0.4919: real time    0.4911
    --------------------------------------------
      LOOP:  cpu time  112.3819: real time  113.4222

 eigenvalue-minimisations  :117487
 total energy-change (2. order) :-0.6566075E-02  (-0.6537971E-02)
 number of electron     432.0000025 magnetization      78.5581673
 augmentation part      432.0000025 magnetization      78.5581673

 Free energy of the ion-electron system (eV)
  ---------------------------------------------------
  alpha Z        PSCENC =      2606.78035498
  Ewald energy   TEWEN  =    -35946.01739387
  -Hartree energ DENC   =     -8284.13158298
  -exchange      EXHF   =         0.00000000
  -V(xc)+E(xc)   XCENC  =       847.72567931
  PAW double counting   =     44465.73496723   -46333.22268180
  entropy T*S    EENTRO =         0.00000000
  eigenvalues    EBANDS =      2186.14383694
  atomic energy  EATOM  =     40127.60640254
  Solvation  Ediel_sol  =         0.00000000
  ---------------------------------------------------
  free energy    TOTEN  =      -329.38041765 eV

  energy without entropy =     -329.38041765  energy(sigma->0) =     -329.38041765


--------------------------------------------------------------------------------------------------------




--------------------------------------- Iteration      1(   8)  ---------------------------------------


    EDDIAG:  cpu time   16.8534: real time   16.8771
  RMM-DIIS:  cpu time   86.0289: real time   86.2563
    ORTHCH:  cpu time    4.3153: real time    4.3256
 BZINTS: Fermi energy:  7.477602;432.000000 electrons
         Band energy:2186.143810;  BLOECHL correction: -0.125226
       DOS:  cpu time    0.4599: real time    0.4630
    --------------------------------------------
      LOOP:  cpu time  107.6576: real time  107.9219

 eigenvalue-minimisations  :110958
 total energy-change (2. order) :-0.2739442E-04  (-0.5689393E-04)
 number of electron     432.0000025 magnetization      78.5581673
 augmentation part      432.0000025 magnetization      78.5581673

 Free energy of the ion-electron system (eV)
  ---------------------------------------------------
  alpha Z        PSCENC =      2606.78035498
  Ewald energy   TEWEN  =    -35946.01739387
  -Hartree energ DENC   =     -8284.13158298
  -exchange      EXHF   =         0.00000000
  -V(xc)+E(xc)   XCENC  =       847.72567931
  PAW double counting   =     44465.73496723   -46333.22268180
  entropy T*S    EENTRO =         0.00000000
  eigenvalues    EBANDS =      2186.14380954
  atomic energy  EATOM  =     40127.60640254
  Solvation  Ediel_sol  =         0.00000000
  ---------------------------------------------------
  free energy    TOTEN  =      -329.38044504 eV

  energy without entropy =     -329.38044504  energy(sigma->0) =     -329.38044504


--------------------------------------------------------------------------------------------------------




--------------------------------------- Iteration      1(   9)  ---------------------------------------


    EDDIAG:  cpu time   16.7615: real time   16.8268
  RMM-DIIS:  cpu time   73.8058: real time   74.0155
    ORTHCH:  cpu time    4.3473: real time    4.3527
 BZINTS: Fermi energy:  7.477602;432.000000 electrons
         Band energy:2186.143804;  BLOECHL correction: -0.125226
       DOS:  cpu time    0.4929: real time    0.4922
    --------------------------------------------
      LOOP:  cpu time   95.4075: real time   95.7001

 eigenvalue-minimisations  : 94469
 total energy-change (2. order) :-0.5925467E-05  (-0.5937889E-05)
 number of electron     432.0000025 magnetization      78.5581673
 augmentation part      432.0000025 magnetization      78.5581673

 Free energy of the ion-electron system (eV)
  ---------------------------------------------------
  alpha Z        PSCENC =      2606.78035498
  Ewald energy   TEWEN  =    -35946.01739387
  -Hartree energ DENC   =     -8284.13158298
  -exchange      EXHF   =         0.00000000
  -V(xc)+E(xc)   XCENC  =       847.72567931
  PAW double counting   =     44465.73496723   -46333.22268180
  entropy T*S    EENTRO =         0.00000000
  eigenvalues    EBANDS =      2186.14380362
  atomic energy  EATOM  =     40127.60640254
  Solvation  Ediel_sol  =         0.00000000
  ---------------------------------------------------
  free energy    TOTEN  =      -329.38045097 eV

  energy without entropy =     -329.38045097  energy(sigma->0) =     -329.38045097


--------------------------------------------------------------------------------------------------------




--------------------------------------- Iteration      1(  10)  ---------------------------------------


    EDDIAG:  cpu time   16.7765: real time   16.9076
  RMM-DIIS:  cpu time   53.9688: real time   54.5793
    ORTHCH:  cpu time    4.3743: real time    4.3964
 BZINTS: Fermi energy:  7.477602;432.000000 electrons
         Band energy:2186.143803;  BLOECHL correction: -0.125226
       DOS:  cpu time    0.4289: real time    0.4298
    --------------------------------------------
      LOOP:  cpu time   75.5485: real time   76.3001

 eigenvalue-minimisations  : 69715
 total energy-change (2. order) :-0.3801397E-06  (-0.3857548E-06)
 number of electron     432.0000025 magnetization      78.5581673
 augmentation part      432.0000025 magnetization      78.5581673

 Free energy of the ion-electron system (eV)
  ---------------------------------------------------
  alpha Z        PSCENC =      2606.78035498
  Ewald energy   TEWEN  =    -35946.01739387
  -Hartree energ DENC   =     -8284.13158298
  -exchange      EXHF   =         0.00000000
  -V(xc)+E(xc)   XCENC  =       847.72567931
  PAW double counting   =     44465.73496723   -46333.22268180
  entropy T*S    EENTRO =         0.00000000
  eigenvalues    EBANDS =      2186.14380324
  atomic energy  EATOM  =     40127.60640254
  Solvation  Ediel_sol  =         0.00000000
  ---------------------------------------------------
  free energy    TOTEN  =      -329.38045135 eV

  energy without entropy =     -329.38045135  energy(sigma->0) =     -329.38045135


--------------------------------------------------------------------------------------------------------




 average (electrostatic) potential at core
  the test charge radii are     0.9791  1.0103
  (the norm of the test charge is              1.0000)
       1 -83.9084       2 -83.8741       3 -83.9390       4 -83.9534       5 -83.9210
       6 -84.0280       7 -83.8579       8 -83.9652       9 -83.9327      10 -83.9438
      11 -83.9369      12 -83.9323      13 -83.9927      14 -84.0343      15 -83.9188
      16 -83.9124      17 -83.9333      18 -83.9307      19 -83.9077      20 -83.9831
      21 -83.8658      22 -83.9010      23 -83.9228      24 -83.8941      25 -41.8880
      26 -41.8623      27 -42.0904      28 -42.0816      29 -41.9781      30 -41.8912
      31 -41.8240      32 -41.9270      33 -41.8773      34 -41.8421      35 -41.8578
      36 -42.0579      37 -41.9229      38 -41.8571      39 -41.8006      40 -41.8949
      41 -41.7215      42 -41.9687      43 -41.8854      44 -41.9585      45 -41.9554
      46 -41.7968      47 -41.8284      48 -41.8047
 
 
 
 E-fermi :   7.4776     XC(G=0): -13.0396     alpha+bet :-14.6744


 spin component 1

 k-point     1 :       0.0000    0.0000    0.0000
  band No.  band energies     occupation 
      1      -1.3137      1.00000
      2       0.5633      1.00000
      3       0.5945      1.00000
      4       0.6351      1.00000
      5       0.6744      1.00000
      6       0.7224      1.00000
      7       0.7420      1.00000
      8       1.8962      1.00000
      9       1.9266      1.00000
     10       2.4387      1.00000
     11       2.4714      1.00000
     12       2.5293      1.00000
     13       2.7173      1.00000
     14       2.7685      1.00000
     15       2.7958      1.00000
     16       2.8139      1.00000
     17       2.8406      1.00000
     18       2.8720      1.00000
     19       2.9104      1.00000
     20       2.9189      1.00000
     21       2.9418      1.00000
     22       2.9519      1.00000
     23       2.9959      1.00000
     24       3.0485      1.00000
     25       3.0576      1.00000
     26       3.0886      1.00000
     27       3.0926      1.00000
     28       3.1402      1.00000
     29       3.1541      1.00000
     30       3.1790      1.00000
     31       3.1880      1.00000
     32       3.2095      1.00000
     33       3.2169      1.00000
     34       3.2232      1.00000
     35       3.2332      1.00000
     36       3.2394      1.00000
     37       3.2471      1.00000
     38       3.2635      1.00000
     39       3.2694      1.00000
     40       3.2731      1.00000
     41       3.2824      1.00000
     42       3.2854      1.00000
     43       3.3015      1.00000
     44       3.3124      1.00000
     45       3.3381      1.00000
     46       3.3473      1.00000
     47       3.3654      1.00000
     48       3.3834      1.00000
     49       3.3944      1.00000
     50       3.4073      1.00000
     51       3.4904      1.00000
     52       3.5937      1.00000
     53       3.6277      1.00000
     54       3.6568      1.00000
     55       3.6660      1.00000
     56       3.6826      1.00000
     57       3.6886      1.00000
     58       3.6971      1.00000
     59       3.7048      1.00000
     60       3.7118      1.00000
     61       3.7213      1.00000
     62       3.7296      1.00000
     63       3.7373      1.00000
     64       3.7481      1.00000
     65       3.7736      1.00000
     66       3.7827      1.00000
     67       3.8025      1.00000
     68       3.8116      1.00000
     69       3.8424      1.00000
     70       4.1746      1.00000
     71       4.1875      1.00000
     72       4.2000      1.00000
     73       4.2127      1.00000
     74       4.2370      1.00000
     75       4.2531      1.00000
     76       4.2600      1.00000
     77       4.2671      1.00000
     78       4.2729      1.00000
     79       4.2787      1.00000
     80       4.2967      1.00000
     81       4.3089      1.00000
     82       4.3201      1.00000
     83       4.3281      1.00000
     84       4.3389      1.00000
     85       4.3494      1.00000
     86       4.3625      1.00000
     87       4.3787      1.00000
     88       4.4053      1.00000
     89       4.4188      1.00000
     90       4.4260      1.00000
     91       4.4389      1.00000
     92       4.4494      1.00000
     93       4.4638      1.00000
     94       4.4690      1.00000
     95       4.4726      1.00000
     96       4.4857      1.00000
     97       4.4976      1.00000
     98       4.5111      1.00000
     99       4.5136      1.00000
    100       4.5376      1.00000
    101       4.5389      1.00000
    102       4.5465      1.00000
    103       4.5520      1.00000
    104       4.5660      1.00000
    105       4.5787      1.00000
    106       4.8553      1.00000
    107       4.8763      1.00000
    108       4.8791      1.00000
    109       4.8900      1.00000
    110       4.8955      1.00000
    111       4.9081      1.00000
    112       4.9125      1.00000
    113       4.9345      1.00000
    114       4.9413      1.00000
    115       4.9422      1.00000
    116       4.9624      1.00000
    117       4.9728      1.00000
    118       4.9827      1.00000
    119       4.9865      1.00000
    120       4.9876      1.00000
    121       5.0005      1.00000
    122       5.0159      1.00000
    123       5.0176      1.00000
    124       5.0289      1.00000
    125       5.0351      1.00000
    126       5.0405      1.00000
    127       5.0457      1.00000
    128       5.0605      1.00000
    129       5.0712      1.00000
    130       5.0731      1.00000
    131       5.0842      1.00000
    132       5.1018      1.00000
    133       5.1084      1.00000
    134       5.1293      1.00000
    135       5.1319      1.00000
    136       5.1425      1.00000
    137       5.1558      1.00000
    138       5.1574      1.00000
    139       5.1666      1.00000
    140       5.1744      1.00000
    141       5.1761      1.00000
    142       5.1856      1.00000
    143       5.1983      1.00000
    144       5.2010      1.00000
    145       5.2081      1.00000
    146       5.2158      1.00000
    147       5.2239      1.00000
    148       5.2502      1.00000
    149       5.2564      1.00000
    150       5.2634      1.00000
    151       5.2806      1.00000
    152       5.2908      1.00000
    153       5.3028      1.00000
    154       5.3116      1.00000
    155       5.3264      1.00000
    156       5.3450      1.00000
    157       5.4568      1.00000
    158       5.4967      1.00000
    159       5.5076      1.00000
    160       5.5304      1.00000
    161       5.5369      1.00000
    162       5.5404      1.00000
    163       5.5536      1.00000
    164       5.5630      1.00000
    165       5.5657      1.00000
    166       5.5813      1.00000
    167       5.6077      1.00000
    168       5.6292      1.00000
    169       5.8371      1.00000
    170       5.8422      1.00000
    171       5.8516      1.00000
    172       5.8569      1.00000
    173       5.8728      1.00000
    174       5.8801      1.00000
    175       5.8875      1.00000
    176       5.8952      1.00000
    177       5.9132      1.00000
    178       5.9143      1.00000
    179       5.9201      1.00000
    180       5.9292      1.00000
    181       5.9323      1.00000
    182       5.9414      1.00000
    183       5.9537      1.00000
    184       5.9614      1.00000
    185       5.9678      1.00000
    186       5.9750      1.00000
    187       5.9791      1.00000
    188       5.9832      1.00000
    189       5.9897      1.00000
    190       5.9994      1.00000
    191       6.0071      1.00000
    192       6.0073      1.00000
    193       6.0142      1.00000
    194       6.0231      1.00000
    195       6.0250      1.00000
    196       6.0298      1.00000
    197       6.0310      1.00000
    198       6.0402      1.00000
    199       6.0408      1.00000
    200       6.0459      1.00000
    201       6.0476      1.00000
    202       6.0584      1.00000
    203       6.0711      1.00000
    204       6.0788      1.00000
    205       6.0891      1.00000
    206       6.1036      1.00000
    207       6.2123      1.00000
    208       6.2243      1.00000
    209       6.2351      1.00000
    210       6.2523      1.00000
    211       6.2697      1.00000
    212       6.2780      1.00000
    213       6.3838      1.00000
    214       6.4112      1.00000
    215       6.4229      1.00000
    216       6.4458      1.00000
    217       6.6983      1.00000
    218       6.7056      1.00000
    219       6.7257      1.00000
    220       6.7332      1.00000
    221       6.7430      1.00000
    222       6.7522      1.00000
    223       6.7551      1.00000
    224       6.7595      1.00000
    225       6.7701      1.00000
    226       6.7724      1.00000
    227       6.7779      1.00000
    228       6.7799      1.00000
    229       6.7919      1.00000
    230       6.7935      1.00000
    231       6.7992      1.00000
    232       6.8042      1.00000
    233       6.8077      1.00000
    234       6.8129      1.00000
    235       6.8159      1.00000
    236       6.8249      1.00000
    237       6.8275      1.00000
    238       6.8330      1.00000
    239       6.8428      1.00000
    240       6.8522      1.00000
    241       6.8620      1.00000
    242       6.8801      1.00000
    243       6.8919      1.00000
    244       7.0027      1.00000
    245       7.0121      1.00000
    246       7.0237      1.00000
    247       7.0388      1.00000
    248       7.0468      1.00000
    249       7.0668      1.00000
    250       7.7449      0.52710
    251       7.7653      0.08092
    252       7.7909      0.01214
    253       7.8077     -0.08297
    254       7.8144     -0.00574
    255       7.8793     -0.00260
    256       8.4167      0.00000
    257       8.4238      0.00000
    258       8.4257      0.00000
    259       8.4325      0.00000
    260       8.4397      0.00000
    261       8.4567      0.00000
    262       8.4601      0.00000
    263       8.4657      0.00000
    264       8.4734      0.00000
    265       8.4934      0.00000
    266       8.4995      0.00000
    267       8.5122      0.00000
    268       9.0782      0.00000
    269       9.1115      0.00000
    270       9.1471      0.00000
    271       9.1565      0.00000
    272       9.1956      0.00000
    273       9.2046      0.00000
    274       9.8797      0.00000
    275       9.8894      0.00000
    276       9.8996      0.00000
    277      11.1951      0.00000
    278      11.2233      0.00000
    279      11.2478      0.00000
    280      11.2553      0.00000
    281      11.2642      0.00000
    282      11.2760      0.00000
    283      11.2885      0.00000
    284      11.3095      0.00000
    285      11.3181      0.00000
    286      11.3309      0.00000
    287      11.3754      0.00000
    288      11.4038      0.00000
    289      14.1891      0.00000
    290      14.2197      0.00000
    291      14.2856      0.00000
    292      14.3722      0.00000
    293      14.3873      0.00000
    294      14.4619      0.00000
    295      15.2799      0.00000
    296      15.3036      0.00000
    297      15.3929      0.00000
    298      15.4016      0.00000
    299      15.4599      0.00000
    300      15.5050      0.00000
    301      15.5127      0.00000
    302      15.5203      0.00000
    303      15.5680      0.00000
    304      15.5984      0.00000
    305      15.6100      0.00000
    306      15.6435      0.00000
    307      16.6184      0.00000
    308      16.6346      0.00000
    309      16.6797      0.00000
    310      17.8112      0.00000
    311      17.8767      0.00000
    312      18.7344      0.00000
    313      18.7581      0.00000
    314      18.7653      0.00000
    315      18.7891      0.00000
    316      18.8023      0.00000
    317      18.8059      0.00000
    318      18.8220      0.00000
    319      18.8474      0.00000
    320      18.8504      0.00000
    321      18.8812      0.00000
    322      18.8933      0.00000
    323      18.9011      0.00000
    324      19.1230      0.00000
    325      19.1638      0.00000
    326      19.1907      0.00000
    327      19.2249      0.00000
    328      19.2754      0.00000
    329      19.2769      0.00000
    330      19.6401      0.00000
    331      19.6582      0.00000
    332      19.6762      0.00000
    333      19.6889      0.00000
    334      19.7198      0.00000
    335      19.7423      0.00000
    336      19.7599      0.00000
    337      19.7892      0.00000
    338      19.8199      0.00000
    339      19.8743      0.00000
    340      19.9025      0.00000
    341      19.9603      0.00000
    342      20.0825      0.00000
    343      20.0909      0.00000
    344      20.1116      0.00000
    345      20.1452      0.00000
    346      20.1526      0.00000
    347      20.1779      0.00000
    348      20.2175      0.00000
    349      20.2440      0.00000
    350      20.2573      0.00000
    351      20.2871      0.00000
    352      20.3236      0.00000
    353      20.3813      0.00000
    354      21.8535      0.00000
    355      21.9526      0.00000
    356      22.0094      0.00000
    357      22.0683      0.00000

 k-point     2 :       0.2500    0.0000    0.0000
  band No.  band energies     occupation 
      1      -1.1805      1.00000
      2      -0.1651      1.00000
      3       0.3103      1.00000
      4       0.3462      1.00000
      5       1.1642      1.00000
      6       1.1885      1.00000
      7       1.5456      1.00000
      8       2.0000      1.00000
      9       2.0284      1.00000
     10       2.4882      1.00000
     11       2.5110      1.00000
     12       2.5482      1.00000
     13       2.5676      1.00000
     14       2.5923      1.00000
     15       2.6256      1.00000
     16       2.7270      1.00000
     17       2.7391      1.00000
     18       2.7838      1.00000
     19       2.8275      1.00000
     20       2.8465      1.00000
     21       2.8729      1.00000
     22       2.9003      1.00000
     23       2.9246      1.00000
     24       2.9529      1.00000
     25       2.9763      1.00000
     26       3.0066      1.00000
     27       3.0304      1.00000
     28       3.0665      1.00000
     29       3.0841      1.00000
     30       3.0930      1.00000
     31       3.1060      1.00000
     32       3.1136      1.00000
     33       3.1261      1.00000
     34       3.1448      1.00000
     35       3.1673      1.00000
     36       3.1837      1.00000
     37       3.2040      1.00000
     38       3.2207      1.00000
     39       3.2307      1.00000
     40       3.2591      1.00000
     41       3.3393      1.00000
     42       3.3593      1.00000
     43       3.3809      1.00000
     44       3.4182      1.00000
     45       3.4392      1.00000
     46       3.4481      1.00000
     47       3.4619      1.00000
     48       3.4809      1.00000
     49       3.5017      1.00000
     50       3.5093      1.00000
     51       3.5279      1.00000
     52       3.5437      1.00000
     53       3.5637      1.00000
     54       3.5828      1.00000
     55       3.5939      1.00000
     56       3.6143      1.00000
     57       3.6412      1.00000
     58       3.6475      1.00000
     59       3.6539      1.00000
     60       3.6700      1.00000
     61       3.7873      1.00000
     62       3.8186      1.00000
     63       3.8558      1.00000
     64       3.8681      1.00000
     65       3.8840      1.00000
     66       3.8978      1.00000
     67       3.9103      1.00000
[...]
   44       -0.003  -0.023   2.682   2.656
   45       -0.002  -0.022   2.672   2.648
   46       -0.011  -0.039   2.573   2.523
   47       -0.009  -0.038   2.610   2.563
   48       -0.009  -0.034   2.598   2.555
--------------------------------------------------
tot         -0.650  -1.887  80.625  78.088
 
    CHARGE:  cpu time    1.9157: real time    1.9382
    FORLOC:  cpu time    0.0130: real time    0.0129
    FORNL :  cpu time   25.3032: real time   25.5049
    STRESS:  cpu time   76.0604: real time   76.3453
    FORCOR:  cpu time    0.1040: real time    0.1045
    FORHAR:  cpu time    0.0310: real time    0.0317
    OFIELD:  cpu time    0.0010: real time    0.0011

  FORCE on cell =-STRESS in cart. coord.  units (eV):
  Direction    XX          YY          ZZ          XY          YZ          ZX
  --------------------------------------------------------------------------------------
  Alpha Z  2606.78035  2606.78035  2606.78035
  Ewald  -11978.75360-12040.26816-11927.16323   112.80186    54.38895   -49.74075
  Hartree  2761.78233  2707.06553  2816.09994   111.34811    54.06292   -50.32737
  E(xc)   -2277.75515 -2278.30115 -2278.13240    -0.07030    -0.00708     0.09044
  Local     922.34816  1034.00210   813.72177  -222.17839  -109.40486   101.85603
  n-local  -797.36108  -800.04867  -799.30227    -0.18948     0.50767     0.53922
  augment  5157.48263  5161.84645  5160.00354    -1.71264     0.22611    -1.34225
  Kinetic  3603.90871  3608.11765  3605.40038    -0.91404     0.11242    -0.06324
  Fock        0.00000     0.00000     0.00000     0.00000     0.00000     0.00000
  -------------------------------------------------------------------------------------
  Total      -1.56764    -0.80590    -2.59192    -0.91486    -0.11388     1.01208
  in kB      -4.59627    -2.36288    -7.59943    -2.68235    -0.33390     2.96740
  external pressure =       -4.85 kB  Pullay stress =        0.00 kB


 VOLUME and BASIS-vectors are now :
 -----------------------------------------------------------------------------
  energy-cutoff  :      520.00
  volume of cell :      546.45
      direct lattice vectors                 reciprocal lattice vectors
     7.142000000 -7.142000000  0.000000000     0.093344535 -0.046672267 -0.046672267
     0.000000000  7.142000000 -7.142000000     0.046672267  0.046672267 -0.093344535
     3.571000000  3.571000000  3.571000000     0.093344535  0.093344535  0.093344535

  length of vectors
    10.100313262 10.100313262  6.185153434     0.114323240  0.114323240  0.161677477


 FORCES acting on ions
    electron-ion (+dipol)            ewald-force                    non-local-force                 convergence-correction
 -----------------------------------------------------------------------------------------------
   0.223E+02 -.804E+02 0.119E+02   -.221E+02 0.808E+02 -.117E+02   -.408E-01 -.302E+00 -.124E+00   -.166E+00 -.160E+00 -.620E-01
   -.328E+02 -.168E+02 -.194E+02   0.327E+02 0.171E+02 0.197E+02   0.341E-01 0.339E-01 -.140E+00   0.850E-01 -.264E+00 -.140E+00
   -.452E+02 0.311E+02 -.122E+03   0.455E+02 -.310E+02 0.123E+03   -.189E+00 0.301E-01 -.442E+00   -.954E-01 -.810E-01 -.285E+00
   -.564E+02 0.622E+02 -.135E+02   0.566E+02 -.625E+02 0.134E+02   0.615E-03 0.142E+00 0.157E+00   -.236E+00 0.800E-01 -.106E+00
   -.175E+02 -.715E+02 0.696E+02   0.176E+02 0.720E+02 -.698E+02   -.175E+00 -.211E+00 0.300E+00   0.909E-01 -.283E+00 -.131E+00
   0.375E+02 -.494E+02 -.437E+01   -.379E+02 0.496E+02 0.458E+01   0.260E+00 0.302E-02 -.148E+00   0.217E+00 -.175E+00 -.691E-01
   0.362E+02 0.210E+02 -.590E+02   -.361E+02 -.211E+02 0.591E+02   0.223E+00 -.490E-01 0.747E-01   -.264E+00 0.856E-01 -.111E+00
   0.123E+02 0.187E+02 0.262E+02   -.124E+02 -.189E+02 -.264E+02   -.210E+00 0.891E-01 0.102E+00   0.261E+00 0.824E-01 0.968E-01
   -.172E+02 0.971E+02 -.898E+02   0.173E+02 -.977E+02 0.901E+02   0.132E+00 0.428E+00 -.184E+00   -.209E+00 0.174E+00 -.137E+00
   0.132E+02 0.863E+02 -.586E+02   -.132E+02 -.869E+02 0.586E+02   -.436E-01 0.191E+00 -.164E+00   0.463E-01 0.378E+00 0.179E+00
   -.107E+03 0.745E+02 0.232E+02   0.108E+03 -.747E+02 -.232E+02   -.104E+00 0.124E+00 0.113E+00   -.212E+00 0.455E-01 -.909E-01
   0.796E+02 -.766E+02 0.815E+01   -.797E+02 0.767E+02 -.840E+01   0.249E+00 0.729E-01 0.726E-01   -.148E+00 -.188E+00 0.158E+00
   0.408E+02 -.889E+02 0.509E+02   -.409E+02 0.894E+02 -.513E+02   -.145E-01 -.260E+00 0.324E+00   0.384E-01 -.216E+00 0.847E-01
   0.163E+02 -.751E+02 0.440E+02   -.164E+02 0.754E+02 -.441E+02   -.196E+00 -.157E+00 -.243E-01   0.287E+00 -.800E-01 0.116E+00
   -.855E+01 -.972E+01 -.126E+02   0.873E+01 0.950E+01 0.127E+02   0.677E-01 0.130E+00 0.164E-01   -.243E+00 0.805E-01 -.622E-01
   -.562E+02 0.100E+03 -.183E+01   0.564E+02 -.101E+03 0.171E+01   -.278E+00 0.830E-01 0.389E-01   -.126E-01 0.335E+00 0.859E-01
   -.408E+02 -.407E+02 -.207E+01   0.408E+02 0.409E+02 0.209E+01   0.228E-01 0.199E-01 -.278E-01   -.868E-01 -.212E+00 0.933E-02
   -.904E+02 0.622E+02 0.273E+02   0.908E+02 -.623E+02 -.274E+02   -.317E+00 0.472E-01 0.296E-01   -.499E-01 0.479E-01 0.432E-01
   0.783E+02 -.141E+03 -.119E+02   -.785E+02 0.142E+03 0.121E+02   0.311E+00 -.448E+00 -.162E+00   -.193E+00 -.164E+00 -.624E-01
   0.108E+02 -.111E+02 0.225E+02   -.109E+02 0.109E+02 -.226E+02   -.477E-01 0.462E-01 0.833E-02   0.165E+00 0.205E+00 0.110E+00
   0.230E+02 0.347E+01 0.255E+02   -.231E+02 -.345E+01 -.256E+02   0.934E-01 -.113E+00 -.107E-01   0.510E-01 0.767E-01 0.126E+00
   -.584E+01 0.503E+02 0.310E+02   0.569E+01 -.503E+02 -.311E+02   -.168E-01 0.263E-01 -.293E-01   0.170E+00 -.501E-02 0.134E+00
   0.650E+00 0.105E+03 -.572E+02   -.973E+00 -.106E+03 0.572E+02   0.138E+00 0.166E+00 -.435E-01   0.162E+00 0.229E+00 0.108E+00
   0.111E+03 -.493E+02 0.112E+03   -.111E+03 0.494E+02 -.113E+03   0.284E+00 -.516E-01 0.266E+00   0.850E-01 0.169E-01 0.188E+00
   0.203E+02 0.346E+02 -.870E+02   -.204E+02 -.349E+02 0.876E+02   0.359E+00 0.232E+00 -.399E+00   -.248E+00 0.464E-01 -.175E+00
   -.454E+02 -.488E+02 -.334E+02   0.457E+02 0.492E+02 0.338E+02   -.375E+00 -.361E+00 -.384E+00   0.410E-01 -.398E-01 -.219E-02
   -.406E+01 -.290E+02 0.264E+02   0.412E+01 0.293E+02 -.263E+02   -.927E-01 -.464E-01 0.175E-01   0.476E-01 -.202E+00 -.974E-01
   0.827E+02 -.401E+02 0.720E+02   -.833E+02 0.405E+02 -.724E+02   0.396E+00 -.278E+00 0.258E+00   0.196E+00 -.810E-01 0.104E+00
   0.377E+02 0.125E+02 -.534E+02   -.377E+02 -.126E+02 0.539E+02   0.606E-01 0.572E-01 -.267E+00   -.245E-01 0.431E-01 -.145E+00
   0.513E+01 0.674E+02 -.476E+01   -.517E+01 -.678E+02 0.466E+01   0.215E-01 0.251E+00 -.584E-01   0.236E-01 0.148E+00 0.149E+00
   -.897E+02 0.136E+01 0.281E+02   0.901E+02 -.108E+01 -.283E+02   -.308E+00 -.212E+00 0.452E+00   -.704E-01 -.623E-01 -.218E+00
   -.132E+03 0.881E+02 0.343E+01   0.133E+03 -.886E+02 -.329E+01   -.793E+00 0.356E+00 -.459E-01   -.880E-01 0.136E+00 -.901E-01
   0.200E+02 -.978E+02 0.257E+02   -.199E+02 0.985E+02 -.257E+02   -.404E-01 -.436E+00 0.898E-02   -.253E-01 -.214E+00 -.367E-01
   0.362E+02 -.716E+02 0.641E+02   -.368E+02 0.721E+02 -.645E+02   0.393E+00 -.335E+00 0.428E+00   0.133E+00 -.127E+00 0.394E-02
   0.193E+02 0.335E+02 0.412E+02   -.199E+02 -.337E+02 -.413E+02   0.443E+00 0.729E-01 0.680E-01   0.176E+00 0.680E-01 -.203E-02
   0.481E+02 -.372E+02 -.567E+01   -.481E+02 0.370E+02 0.542E+01   0.260E-01 0.748E-04 0.695E-01   0.455E-01 0.147E+00 0.160E+00
   -.930E+02 0.833E+02 -.578E+02   0.933E+02 -.836E+02 0.582E+02   -.237E+00 0.371E+00 -.236E+00   -.103E+00 -.949E-01 -.167E+00
   -.239E+02 -.148E+02 -.658E+02   0.243E+02 0.151E+02 0.663E+02   -.210E+00 -.114E+00 -.227E+00   -.167E+00 -.878E-01 -.189E+00
   -.934E+01 0.779E+02 0.122E+02   0.908E+01 -.784E+02 -.125E+02   0.249E+00 0.381E+00 0.303E+00   0.675E-02 0.969E-01 -.880E-02
   -.667E+02 0.977E+02 -.574E+01   0.668E+02 -.984E+02 0.601E+01   -.234E+00 0.488E+00 -.247E+00   0.125E+00 0.191E+00 -.190E-01
   0.346E+02 -.505E+02 0.328E+02   -.343E+02 0.509E+02 -.330E+02   -.233E+00 -.304E+00 0.966E-01   -.632E-02 -.105E+00 0.713E-01
   0.242E+02 -.111E+03 0.452E+02   -.242E+02 0.112E+03 -.455E+02   0.103E-01 -.500E+00 0.151E+00   -.361E-01 -.135E+00 0.156E+00
   0.634E+02 -.578E+02 0.472E+02   -.636E+02 0.578E+02 -.477E+02   0.131E+00 -.789E-01 0.275E+00   0.789E-01 0.569E-02 0.210E+00
   -.181E+01 -.755E+02 0.117E+02   0.159E+01 0.760E+02 -.118E+02   0.140E+00 -.315E+00 0.875E-01   0.810E-01 -.109E+00 0.694E-01
   -.861E+01 0.739E+02 -.176E+02   0.873E+01 -.744E+02 0.178E+02   -.150E+00 0.406E+00 -.140E+00   0.313E-01 0.374E-01 -.495E-01
   0.321E+02 0.824E+02 -.586E+02   -.322E+02 -.830E+02 0.590E+02   0.155E+00 0.473E+00 -.315E+00   -.642E-01 0.143E+00 -.817E-01
   0.173E+02 -.411E+02 -.267E+02   -.173E+02 0.414E+02 0.269E+02   0.219E-01 -.237E+00 -.227E+00   -.205E-01 -.348E-01 0.496E-01
   0.308E+02 0.213E+02 0.633E+01   -.308E+02 -.216E+02 -.685E+01   -.142E-01 0.141E+00 0.330E+00   0.766E-01 0.197E+00 0.171E+00
 -----------------------------------------------------------------------------------------------
   0.143E+00 -.266E-01 -.447E-01   0.909E-12 0.284E-12 0.739E-12   -.973E-01 0.523E-01 0.267E-02   -.498E-01 -.250E-01 0.431E-01
 
 
 POSITION                                       TOTAL-FORCE (eV/Angst)
 -----------------------------------------------------------------------------------
     10.68368     -3.58205      3.54393         0.011141      0.004398     -0.005960
      5.34204      8.92479     -3.56489        -0.000322     -0.017640      0.000906
      7.12829      0.01399      3.55050         0.019163      0.009450      0.022800
     10.69465     -1.77246      1.77563         0.001996      0.000555      0.000297
      5.33655      3.55413      1.77928         0.018304     -0.005497     -0.011011
      3.57024     -0.02784      0.00199        -0.005221      0.002500     -0.003505
      5.35895     -3.53347     -1.79530        -0.008761     -0.011468      0.009842
      5.35358     -0.02299      1.76605        -0.018641      0.013926     -0.004427
      7.14653     -3.55347      0.01942        -0.003816     -0.002885      0.009576
      7.15552     -1.78068      1.77978         0.011090     -0.016824     -0.018981
      7.14388     -3.56244     -3.55622         0.013022     -0.000717     -0.003178
      8.91063      1.78558      0.00541        -0.006928     -0.000646     -0.019245
      5.35180     -0.02612     -1.76382        -0.020012      0.017159     -0.007195
      5.36267      1.74990     -0.01513        -0.007148      0.013971     -0.002134
      7.14321     -1.76739     -1.75540         0.005003     -0.008032      0.009915
      8.94515     -1.78286     -0.00788        -0.012964      0.001757      0.005051
      7.12779     -1.77361     -5.34662         0.016317      0.004599      0.008578
      1.78046      5.36433     -3.55929        -0.005929      0.004102     -0.011775
      8.94334      3.54968     -1.80676        -0.012538      0.011690      0.008123
      5.37239      3.57817     -1.77602         0.006233     -0.014931      0.003809
      8.92019      0.01842     -1.79372        -0.004111     -0.009619      0.000779
      3.56254      7.14247     -3.59186         0.005119      0.001009      0.005994
      5.37767      5.37112     -3.55369        -0.022725     -0.006247      0.016642
      8.95084      1.75837     -3.56543        -0.013692     -0.004539     -0.008546
      5.35996     -5.30894     -0.02311         0.005687     -0.014916      0.018115
      1.75636      1.75500     -0.05832         0.006512      0.017111     -0.000273
      7.08506      1.79326      1.80977         0.013135      0.013534     -0.006362
      3.60488      1.75225      1.78518        -0.025391      0.022929     -0.019925
      5.37707     -1.80928     -0.02995        -0.003988     -0.008115      0.015849
      8.91405     -3.57049      1.75244         0.003283      0.008933     -0.004843
      1.77317      1.80721     -3.53089         0.031519      0.001634      0.009575
      1.72602      3.62813     -1.76985         0.024810     -0.017493      0.002165
      7.14615      3.52998     -0.01437         0.001550      0.025277      0.002648
      3.61152      1.73174     -1.77581        -0.028773      0.007806     -0.017355
      3.60252      3.57120     -0.02601        -0.007362     -0.004861      0.004087
      7.19273     -0.01579     -0.01089         0.003649     -0.004021     -0.014960
      1.76238      3.63994     -5.36252         0.009206     -0.015631      0.012755
      3.56269      1.79916     -5.35257         0.017229      0.009126      0.032274
      3.59005      3.57898     -3.51414        -0.006806     -0.002409     -0.013637
      3.58129      5.41579     -1.78218        -0.001558     -0.015672      0.002197
      5.37105      1.77629     -3.58541         0.004368      0.001420      0.000390
      7.11838     -0.04496     -3.52074        -0.003268      0.030121     -0.015076
      7.14699      1.78343     -1.79399         0.000498     -0.008034      0.000453
      1.74854      7.10191     -5.36936         0.000337      0.015612      0.000752
      3.58968      5.36057     -5.33630        -0.001165     -0.042606     -0.004788
      5.37306      3.61627     -5.34685        -0.001297     -0.016100      0.003610
      7.14101      1.75669     -5.34812         0.001523      0.017162      0.005301
      7.16979      3.57510     -3.55695        -0.008278     -0.006879     -0.019310
 -----------------------------------------------------------------------------------
    total drift:                               -0.003837      0.000602      0.001043


--------------------------------------------------------------------------------------------------------



  FREE ENERGIE OF THE ION-ELECTRON SYSTEM (eV)
  ---------------------------------------------------
  free  energy   TOTEN  =      -329.38045135 eV

  energy  without entropy=     -329.38045135  energy(sigma->0) =     -329.38045135
 


--------------------------------------------------------------------------------------------------------


    POTLOK:  cpu time    0.1050: real time    0.1197


--------------------------------------------------------------------------------------------------------


     LOOP+:  cpu time 1139.4448: real time 1160.5704
    4ORBIT:  cpu time    0.0000: real time    0.0000
 


 total charge     
 
# of ion       s       p       d       tot
------------------------------------------
    1        0.504   0.503   8.315   9.321
    2        0.505   0.502   8.326   9.333
    3        0.505   0.510   8.307   9.322
    4        0.506   0.506   8.313   9.325
    5        0.509   0.513   8.322   9.345
    6        0.510   0.515   8.310   9.335
    7        0.499   0.493   8.316   9.308
    8        0.502   0.501   8.308   9.310
    9        0.514   0.515   8.326   9.355
   10        0.504   0.506   8.308   9.318
   11        0.499   0.495   8.308   9.301
   12        0.503   0.502   8.313   9.319
   13        0.517   0.527   8.310   9.354
   14        0.510   0.516   8.308   9.334
   15        0.509   0.509   8.323   9.341
   16        0.503   0.503   8.322   9.328
   17        0.497   0.494   8.310   9.301
   18        0.510   0.514   8.318   9.342
   19        0.509   0.513   8.314   9.336
   20        0.517   0.528   8.307   9.352
   21        0.501   0.494   8.324   9.319
   22        0.504   0.500   8.318   9.321
   23        0.506   0.508   8.312   9.327
   24        0.504   0.506   8.311   9.322
   25        0.468   0.492   6.182   7.142
   26        0.471   0.498   6.193   7.161
   27        0.471   0.499   6.160   7.129
   28        0.468   0.491   6.153   7.113
   29        0.476   0.504   6.188   7.169
   30        0.470   0.493   6.187   7.150
   31        0.476   0.505   6.199   7.180
   32        0.477   0.506   6.190   7.172
   33        0.472   0.499   6.196   7.166
   34        0.474   0.500   6.204   7.178
   35        0.472   0.499   6.191   7.162
   36        0.471   0.498   6.167   7.135
   37        0.471   0.495   6.183   7.149
   38        0.472   0.500   6.187   7.158
   39        0.476   0.507   6.205   7.188
   40        0.472   0.498   6.186   7.155
   41        0.481   0.510   6.227   7.217
   42        0.473   0.500   6.182   7.156
   43        0.476   0.500   6.203   7.179
   44        0.471   0.495   6.184   7.150
   45        0.473   0.498   6.189   7.160
   46        0.479   0.509   6.212   7.200
   47        0.475   0.505   6.202   7.182
   48        0.475   0.503   6.203   7.181
--------------------------------------------------
tot         23.506  24.178 348.118 395.803
 


 magnetization (x)
 
# of ion       s       p       d       tot
------------------------------------------
    1       -0.022  -0.050   0.703   0.631
    2       -0.020  -0.044   0.665   0.602
    3       -0.024  -0.056   0.723   0.643
    4       -0.021  -0.047   0.722   0.654
    5       -0.024  -0.053   0.695   0.618
    6       -0.024  -0.053   0.751   0.675
    7       -0.019  -0.041   0.674   0.614
    8       -0.020  -0.047   0.734   0.667
    9       -0.025  -0.048   0.690   0.617
   10       -0.021  -0.048   0.723   0.654
   11       -0.017  -0.040   0.718   0.661
   12       -0.020  -0.045   0.709   0.644
   13       -0.028  -0.060   0.733   0.644
   14       -0.023  -0.054   0.763   0.686
   15       -0.018  -0.041   0.681   0.621
   16       -0.019  -0.044   0.691   0.629
   17       -0.015  -0.039   0.716   0.662
   18       -0.024  -0.052   0.699   0.623
   19       -0.027  -0.056   0.700   0.618
   20       -0.031  -0.066   0.744   0.647
   21       -0.018  -0.038   0.664   0.609
   22       -0.021  -0.043   0.689   0.625
   23       -0.024  -0.054   0.717   0.640
   24       -0.024  -0.054   0.702   0.624
   25       -0.003  -0.026   2.661   2.633
   26       -0.008  -0.036   2.637   2.593
   27        0.003  -0.020   2.759   2.742
   28       -0.000  -0.021   2.769   2.748
   29       -0.001  -0.023   2.675   2.651
   30       -0.005  -0.029   2.657   2.624
   31       -0.010  -0.039   2.618   2.568
   32       -0.006  -0.031   2.658   2.621
   33       -0.004  -0.028   2.642   2.610
   34       -0.006  -0.031   2.613   2.576
   35       -0.008  -0.036   2.641   2.597
   36        0.002  -0.018   2.735   2.718
   37       -0.003  -0.025   2.671   2.643
   38       -0.008  -0.037   2.655   2.611
   39       -0.012  -0.043   2.599   2.543
   40       -0.003  -0.027   2.659   2.629
   41       -0.014  -0.042   2.522   2.465
   42       -0.000  -0.023   2.682   2.659
   43       -0.004  -0.022   2.630   2.604
   44       -0.003  -0.023   2.682   2.656
   45       -0.002  -0.022   2.672   2.648
   46       -0.011  -0.039   2.573   2.523
   47       -0.009  -0.038   2.610   2.563
   48       -0.009  -0.034   2.598   2.555
--------------------------------------------------
tot         -0.650  -1.887  80.625  78.088
 
 BZINTS: Fermi energy:  7.477602;432.000000 electrons
         Band energy:2186.143803;  BLOECHL correction: -0.125226

 total amount of memory used by VASP MPI-rank0   247962. kBytes
=======================================================================

   base      :      30000. kBytes
   nonlr-proj:      10907. kBytes
   fftplans  :       2600. kBytes
   grid      :       6545. kBytes
   one-center:         93. kBytes
   wavefun   :     197817. kBytes
 
  
  
 General timing and accounting informations for this job:
 ========================================================
  
                  Total CPU time used (sec):     1251.479
                            User time (sec):     1222.565
                          System time (sec):       28.914
                         Elapsed time (sec):     1301.563
  
                   Maximum memory used (kb):      413352.
                   Average memory used (kb):           0.
  
                          Minor page faults:        16941
                          Major page faults:            0
                 Voluntary context switches:        10327
