       N       E                     dE             d eps       ncg     rms          rms(c)
DAV:   1     0.433184656917E+04    0.43318E+04   -0.22879E+05 32640   0.140E+03
DAV:   2    -0.667470153988E+02   -0.43986E+04   -0.40892E+04 32640   0.327E+02
DAV:   3    -0.440160841919E+03   -0.37341E+03   -0.31773E+03 34086   0.135E+02
DAV:   4    -0.455166935809E+03   -0.15006E+02   -0.14635E+02 34653   0.292E+01
DAV:   5    -0.455425066833E+03   -0.25813E+00   -0.25796E+00 36657   0.329E+00
RMM:   6    -0.455433326582E+03   -0.82597E-02   -0.82603E-02 33844   0.534E-01
RMM:   7    -0.455435571936E+03   -0.22454E-02   -0.22407E-02 49776   0.192E-01
RMM:   8    -0.455435626532E+03   -0.54596E-04   -0.52155E-04 48929   0.254E-02
RMM:   9    -0.455435650298E+03   -0.23766E-04   -0.23671E-04 29666   0.746E-03
RMM:  10    -0.455435652226E+03   -0.19282E-05   -0.12811E-05 21505   0.349E-03
RMM:  11    -0.455435652937E+03   -0.71060E-06   -0.68497E-06 20952   0.215E-03
   1 F= -.45543565E+03 E0= -.45543565E+03  d E =0.000000E+00  mag=   137.1455
