 vasp.5.4.4.18Apr17-6-g9f103f2a35 (build Sep 06 2021 19:49:22) complex          
  
 executed on             LinuxIFC date 2022.01.05  11:32:41
 running on   72 total cores
 distrk:  each k-point on   72 cores,    1 groups
 distr:  one band on NCORES_PER_BAND=  24 cores,    3 groups


--------------------------------------------------------------------------------------------------------


 INCAR:
 POTCAR:    PAW_PBE Fe 06Sep2000                  
 POTCAR:    PAW_PBE Ni 02Aug2007                  

 ----------------------------------------------------------------------------- 
|                                                                             |
|           W    W    AA    RRRRR   N    N  II  N    N   GGGG   !!!           |
|           W    W   A  A   R    R  NN   N  II  NN   N  G    G  !!!           |
|           W    W  A    A  R    R  N N  N  II  N N  N  G       !!!           |
|           W WW W  AAAAAA  RRRRR   N  N N  II  N  N N  G  GGG   !            |
|           WW  WW  A    A  R   R   N   NN  II  N   NN  G    G                |
|           W    W  A    A  R    R  N    N  II  N    N   GGGG   !!!           |
|                                                                             |
|      For optimal performance we recommend to set                            |
|        NCORE= 4 - approx SQRT( number of cores)                             |
|      NCORE specifies how many cores store one orbital (NPAR=cpu/NCORE).     |
|      This setting can  greatly improve the performance of VASP for DFT.     |
|      The default,   NCORE=1            might be grossly inefficient         |
|      on modern multi-core architectures or massively parallel machines.     |
|      Do your own testing !!!!                                               |
|      Unfortunately you need to use the default for GW and RPA calculations. |
|      (for HF NCORE is supported but not extensively tested yet)             |
|                                                                             |
 ----------------------------------------------------------------------------- 

 POTCAR:    PAW_PBE Fe 06Sep2000                  
   VRHFIN =Fe:  d7 s1                                                           
   LEXCH  = PE                                                                  
   EATOM  =   594.3153 eV,   43.6809 Ry                                         
                                                                                
   TITEL  = PAW_PBE Fe 06Sep2000                                                
   LULTRA =        F    use ultrasoft PP ?                                      
   IUNSCR =        1    unscreen: 0-lin 1-nonlin 2-no                           
   RPACOR =    2.000    partial core radius                                     
   POMASS =   55.847; ZVAL   =    8.000    mass and valenz                      
   RCORE  =    2.300    outmost cutoff radius                                   
   RWIGS  =    2.460; RWIGS  =    1.302    wigner-seitz radius (au A)           
   ENMAX  =  267.882; ENMIN  =  200.911 eV                                      
   RCLOC  =    1.701    cutoff for local pot                                    
   LCOR   =        T    correct aug charges                                     
   LPAW   =        T    paw PP                                                  
   EAUG   =  511.368                                                            
   DEXC   =    0.000                                                            
   RMAX   =    2.356    core radius for proj-oper                               
   RAUG   =    1.300    factor for augmentation sphere                          
   RDEP   =    2.442    radius for radial grids                                 
   RDEPT  =    1.890    core radius for aug-charge                              
                                                                                
   Atomic configuration                                                         
    9 entries                                                                   
     n  l   j            E        occ.                                          
     1  0  0.50     -6993.8440   2.0000                                         
     2  0  0.50      -814.6047   2.0000                                         
     2  1  1.50      -693.3689   6.0000                                         
     3  0  0.50       -89.4732   2.0000                                         
     3  1  1.50       -55.6373   6.0000                                         
     3  2  2.50        -3.8151   7.0000                                         
     4  0  0.50        -4.2551   1.0000                                         
     4  1  1.50        -3.4015   0.0000                                         
     4  3  2.50        -1.3606   0.0000                                         
   Description                                                                  
     l       E           TYP  RCUT    TYP  RCUT                                 
     2     -3.8151135     23  2.300                                             
     2     -5.1756961     23  2.300                                             
     0     -4.2550963     23  2.300                                             
     0      7.2035603     23  2.300                                             
     1     -2.7211652     23  2.300                                             
     1     18.4316424     23  2.300                                             
  local pseudopotential read in
  partial core-charges read in
  partial kinetic energy density read in
  atomic valenz-charges read in
  non local Contribution for L=           2  read in
    real space projection operators read in
  non local Contribution for L=           2  read in
    real space projection operators read in
  non local Contribution for L=           0  read in
    real space projection operators read in
  non local Contribution for L=           0  read in
    real space projection operators read in
  non local Contribution for L=           1  read in
    real space projection operators read in
  non local Contribution for L=           1  read in
    real space projection operators read in
    PAW grid and wavefunctions read in
 
   number of l-projection  operators is LMAX  =           6
   number of lm-projection operators is LMMAX =          18
 
 POTCAR:    PAW_PBE Ni 02Aug2007                  
   VRHFIN =Ni:                                                                  
   LEXCH  = PE                                                                  
   EATOM  =  1077.6739 eV,   79.2068 Ry                                         
                                                                                
   TITEL  = PAW_PBE Ni 02Aug2007                                                
   LULTRA =        F    use ultrasoft PP ?                                      
   IUNSCR =        1    unscreen: 0-lin 1-nonlin 2-no                           
   RPACOR =    2.000    partial core radius                                     
   POMASS =   58.690; ZVAL   =   10.000    mass and valenz                      
   RCORE  =    2.300    outmost cutoff radius                                   
   RWIGS  =    2.430; RWIGS  =    1.286    wigner-seitz radius (au A)           
   ENMAX  =  269.532; ENMIN  =  202.149 eV                                      
   RCLOC  =    1.201    cutoff for local pot                                    
   LCOR   =        T    correct aug charges                                     
   LPAW   =        T    paw PP                                                  
   EAUG   =  544.565                                                            
   DEXC   =    0.000                                                            
   RMAX   =    2.357    core radius for proj-oper                               
   RAUG   =    1.300    factor for augmentation sphere                          
   RDEP   =    2.390    radius for radial grids                                 
   RDEPT  =    1.838    core radius for aug-charge                              
                                                                                
   Atomic configuration                                                         
    9 entries                                                                   
     n  l   j            E        occ.                                          
     1  0  0.50     -8206.4253   2.0000                                         
     2  0  0.50      -976.1748   2.0000                                         
     2  1  1.50      -839.0571   6.0000                                         
     3  0  0.50      -105.9991   2.0000                                         
     3  1  1.50       -66.4603   6.0000                                         
     3  2  2.50        -4.6458   9.0000                                         
     4  0  0.50        -4.4926   1.0000                                         
     4  1  1.50        -4.0817   0.0000                                         
     4  3  2.50        -1.3606   0.0000                                         
   Description                                                                  
     l       E           TYP  RCUT    TYP  RCUT                                 
     2     -4.6457903     23  2.300                                             
     2     -6.0063729     23  2.300                                             
     0     -4.4925590     23  2.300                                             
     0      5.0102601     23  2.300                                             
     1     -2.7211652     23  2.300                                             
     1     16.5183231     23  2.300                                             
  local pseudopotential read in
  partial core-charges read in
  partial kinetic energy density read in
  atomic valenz-charges read in
  non local Contribution for L=           2  read in
    real space projection operators read in
  non local Contribution for L=           2  read in
    real space projection operators read in
  non local Contribution for L=           0  read in
    real space projection operators read in
  non local Contribution for L=           0  read in
    real space projection operators read in
  non local Contribution for L=           1  read in
    real space projection operators read in
  non local Contribution for L=           1  read in
    real space projection operators read in
    PAW grid and wavefunctions read in
 
   number of l-projection  operators is LMAX  =           6
   number of lm-projection operators is LMMAX =          18
 
 Optimization of the real space projectors (new method)

 maximal supplied QI-value         = 16.25
 optimisation between [QCUT,QGAM] = [ 11.54, 23.24] = [ 37.28,151.24] Ry 
 Optimized for a Real-space Cutoff    1.53 Angstroem

   l    n(q)    QCUT    max X(q) W(low)/X(q) W(high)/X(q)  e(spline) 
   2     10    11.539    80.901    0.11E-03    0.14E-03    0.21E-06
   2     10    11.539    75.754    0.11E-03    0.14E-03    0.22E-06
   0     11    11.539    58.752    0.52E-04    0.18E-04    0.33E-06
   0     11    11.539    30.679    0.44E-04    0.16E-04    0.30E-06
   1     10    11.539    17.977    0.53E-04    0.29E-04    0.13E-06
   1     10    11.539    13.559    0.44E-04    0.25E-04    0.11E-06
 Optimization of the real space projectors (new method)

 maximal supplied QI-value         = 16.25
 optimisation between [QCUT,QGAM] = [ 11.54, 23.24] = [ 37.28,151.24] Ry 
 Optimized for a Real-space Cutoff    1.45 Angstroem

   l    n(q)    QCUT    max X(q) W(low)/X(q) W(high)/X(q)  e(spline) 
   2      9    11.539    60.317    0.19E-03    0.47E-04    0.16E-06
   2      9    11.539    55.921    0.19E-03    0.48E-04    0.16E-06
   0     10    11.539    51.690    0.80E-04    0.50E-04    0.24E-06
   0     10    11.539    30.015    0.73E-04    0.45E-04    0.22E-06
   1     10    11.539    18.849    0.87E-04    0.16E-03    0.71E-07
   1     10    11.539    14.624    0.73E-04    0.13E-03    0.64E-07
  PAW_PBE Fe 06Sep2000                  :
 energy of atom  1       EATOM= -594.3153
 kinetic energy error for atom=    0.0026 (will be added to EATOM!!)
  PAW_PBE Ni 02Aug2007                  :
 energy of atom  2       EATOM=-1077.6739
 kinetic energy error for atom=    0.0030 (will be added to EATOM!!)
 
 
 POSCAR: POSCAR                                  
  positions in direct lattice
  velocities in cartesian coordinates
 exchange correlation table for  LEXCH =        8
   RHO(1)=    0.500       N(1)  =     2000
   RHO(2)=  100.500       N(2)  =     4000
 


--------------------------------------------------------------------------------------------------------


 ion  position               nearest neighbor table
   1  0.002  0.999  0.097-   9 2.45  29 2.50  49 2.51  64 2.51  44 2.53   7 2.53  51 2.54  38 2.55
                             5 2.60
   2  0.001  0.999  0.391-  11 2.49  39 2.50   6 2.52  52 2.52  48 2.53   8 2.54  30 2.54  50 2.55
                            57 2.64
   3  0.499  0.996  0.096-   5 2.47  62 2.50  34 2.52  31 2.52  49 2.53  45 2.55  55 2.55  12 2.56
                            53 2.58
   4  0.502  0.004  0.390-  50 2.49  54 2.49  56 2.51  15 2.51  13 2.52  35 2.53   6 2.56  32 2.58
                            63 2.66
   5  0.743  0.996  0.094-   3 2.47  34 2.47  62 2.52  38 2.53  55 2.54  64 2.58  14 2.58  51 2.59
                             1 2.60
   6  0.753  1.000  0.386-  39 2.51  56 2.51   2 2.52  15 2.52  57 2.52  52 2.53  35 2.54  47 2.56
                             4 2.56
   7  0.249  0.253  0.097-  22 2.43   9 2.44  51 2.49  18 2.52  20 2.53   1 2.53  53 2.54  10 2.55
                            49 2.58
   8  0.255  0.247  0.390-  11 2.47  26 2.49  50 2.50  54 2.50  19 2.53  21 2.53   2 2.54  52 2.56
                            59 2.67
   9  0.089  0.161  0.191-  10 2.41   7 2.44   1 2.45  44 2.47  51 2.52  59 2.53  64 2.54  22 2.55
                            11 2.57  57 2.57  58 2.62  14 2.68
  10  0.330  0.166  0.195-   9 2.41  22 2.48  45 2.48  44 2.49  13 2.55   7 2.55  12 2.57  49 2.58
                            11 2.58  53 2.59  25 2.59  26 2.60
  11  0.162  0.086  0.295-  59 2.47   8 2.47  57 2.48   2 2.49  48 2.52  50 2.54  13 2.55  26 2.57
                            46 2.57   9 2.57  10 2.58  44 2.62
  12  0.583  0.166  0.194-  14 2.45  27 2.50  15 2.51  62 2.52  45 2.54  55 2.55   3 2.56  10 2.57
                            28 2.58  53 2.58  25 2.58  13 2.58
  13  0.413  0.084  0.294-  50 2.47  54 2.49   4 2.52  15 2.52  28 2.54  46 2.55  11 2.55  10 2.55
                            63 2.57  12 2.58  45 2.58  26 2.59
  14  0.827  0.167  0.193-  12 2.45  60 2.50  62 2.51  55 2.51  57 2.52  27 2.53  15 2.55  58 2.56
                            51 2.56   5 2.58  64 2.59   9 2.68
  15  0.661  0.080  0.292-  47 2.49  56 2.49  12 2.51   4 2.51   6 2.52  13 2.52  28 2.53  63 2.53
                            14 2.55  62 2.55  57 2.56  60 2.56
  16  0.003  0.511  0.095-  31 2.44  29 2.45  23 2.48  33 2.51  58 2.57  18 2.58  27 2.59  55 2.60
                            51 2.63
  17  0.000  0.495  0.387-  56 2.49  52 2.51  43 2.51  24 2.52  60 2.53  32 2.54  19 2.55  37 2.56
                            30 2.56
  18  0.256  0.506  0.097-  36 2.40  31 2.45  34 2.47  22 2.47  20 2.48   7 2.52  58 2.53  51 2.58
                            16 2.58
  19  0.253  0.495  0.385-  61 2.49  21 2.50  52 2.51   8 2.53  59 2.54  37 2.54  35 2.54  32 2.55
                            17 2.55
  20  0.500  0.503  0.098-  22 2.41  40 2.43  34 2.48  18 2.48  38 2.50  25 2.53   7 2.53  53 2.54
                            23 2.58
  21  0.502  0.501  0.393-  19 2.50  42 2.51  26 2.53  54 2.53   8 2.53  39 2.54  24 2.56  35 2.57
                            61 2.66
  22  0.339  0.416  0.189-  20 2.41   7 2.43  40 2.46  18 2.47  25 2.48  10 2.48  36 2.53   9 2.55
                            59 2.56  61 2.58  26 2.59  58 2.60
  23  0.757  0.508  0.096-  29 2.40  41 2.46  16 2.48  27 2.48  38 2.48  25 2.56  55 2.57  20 2.58
                            53 2.60
  24  0.754  0.498  0.394-  30 2.49  54 2.50  17 2.52  56 2.53  21 2.56  39 2.57  28 2.57  43 2.58
                            42 2.61
  25  0.586  0.422  0.194-  40 2.45  41 2.46  27 2.46  22 2.48  20 2.53  23 2.56  53 2.58  12 2.58
                            28 2.59  10 2.59  26 2.59  42 2.60
  26  0.415  0.341  0.294-  61 2.46  59 2.47   8 2.49  42 2.51  21 2.53  54 2.54  11 2.57  13 2.59
                            22 2.59  28 2.59  25 2.59  10 2.60
  27  0.827  0.417  0.192-  41 2.45  25 2.46  23 2.48  12 2.50  55 2.51  14 2.53  60 2.56  28 2.58
                            58 2.59  16 2.59  43 2.59  33 2.60
  28  0.667  0.333  0.294-  54 2.46  56 2.46  60 2.52  43 2.52  15 2.53  13 2.54  24 2.57  12 2.58
                            27 2.58  42 2.59  26 2.59  25 2.59
  29  0.992  0.747  0.096-  23 2.40  16 2.45  38 2.48  41 2.50   1 2.50  33 2.54  44 2.56  49 2.57
                            31 2.63
  30  0.999  0.746  0.393-  24 2.49  39 2.51   2 2.54  32 2.55  17 2.56  50 2.56  46 2.56  43 2.57
                            48 2.65
  31  0.251  0.746  0.097-  16 2.44  36 2.44  18 2.45  33 2.49  34 2.52   3 2.52  45 2.55  49 2.56
                            29 2.63
  32  0.251  0.746  0.388-  35 2.47  46 2.53  17 2.54  50 2.54  19 2.55  30 2.55  63 2.56   4 2.58
                            37 2.59
  33  0.086  0.671  0.192-  45 2.48  44 2.48  31 2.49  16 2.51  36 2.52  41 2.52  29 2.54  37 2.54
                            58 2.55  46 2.57  27 2.60  43 2.61
  34  0.502  0.749  0.098-  18 2.47   5 2.47  40 2.48  36 2.48  20 2.48  62 2.49  38 2.49  31 2.52
                             3 2.52
  35  0.498  0.752  0.384-  32 2.47  63 2.50  61 2.51  47 2.51   4 2.53   6 2.54  19 2.54  21 2.57
                            39 2.59
  36  0.330  0.661  0.190-  18 2.40  31 2.44  34 2.48  58 2.49  33 2.52  22 2.53  40 2.53  37 2.53
                            61 2.54  63 2.54  62 2.56  45 2.62
  37  0.165  0.577  0.288-  58 2.47  59 2.49  61 2.49  60 2.50  63 2.52  36 2.53  33 2.54  19 2.54
                            43 2.55  17 2.56  32 2.59  46 2.60
  38  0.748  0.749  0.094-  29 2.48  23 2.48  34 2.49  20 2.50   5 2.53  40 2.54  64 2.55   1 2.55
                            41 2.58
  39  0.753  0.752  0.394-   2 2.50   6 2.51  30 2.51  42 2.54  21 2.54  48 2.57  24 2.57  35 2.59
                            47 2.73
  40  0.580  0.661  0.192-  20 2.43  25 2.45  22 2.46  34 2.48  36 2.53  61 2.53  47 2.53  38 2.54
                            41 2.54  62 2.56  64 2.57  42 2.61
  41  0.832  0.662  0.193-  27 2.45  25 2.46  23 2.46  29 2.50  33 2.52  40 2.54  64 2.54  43 2.56
                            44 2.57  38 2.58  48 2.61  42 2.63
  42  0.665  0.588  0.296-  21 2.51  47 2.51  26 2.51  61 2.51  48 2.52  39 2.54  43 2.56  28 2.59
                            25 2.60  40 2.61  24 2.61  41 2.63
  43  0.916  0.583  0.293-  46 2.50  17 2.51  28 2.52  60 2.54  37 2.55  41 2.56  42 2.56  30 2.57
                            24 2.58  27 2.59  48 2.59  33 2.61
  44  0.086  0.916  0.194-  45 2.43   9 2.47  33 2.48  10 2.49   1 2.53  49 2.53  64 2.54  46 2.54
                            29 2.56  41 2.57  48 2.59  11 2.62
  45  0.327  0.919  0.193-  44 2.43  33 2.48  10 2.48  49 2.49  63 2.52  12 2.54  31 2.55   3 2.55
                            46 2.58  13 2.58  62 2.59  36 2.62
  46  0.162  0.832  0.293-  43 2.50  50 2.51  32 2.53  63 2.53  44 2.54  13 2.55  48 2.56  30 2.56
                            33 2.57  11 2.57  45 2.58  37 2.60
  47  0.662  0.834  0.287-  62 2.46  15 2.49  63 2.51  64 2.51  42 2.51  35 2.51  48 2.52  61 2.52
                            40 2.53  57 2.55   6 2.56  39 2.73
  48  0.913  0.838  0.292-  57 2.48  42 2.52  47 2.52  11 2.52  64 2.52   2 2.53  46 2.56  39 2.57
                            44 2.59  43 2.59  41 2.61  30 2.65
  49  0.249  0.998  0.096-  45 2.49   1 2.51  44 2.53   3 2.53  53 2.55  31 2.56  29 2.57  10 2.58
                             7 2.58
  50  0.253  0.998  0.389-  13 2.47   4 2.49   8 2.50  46 2.51  32 2.54  11 2.54   2 2.55  54 2.56
                            30 2.56
  51  0.001  0.250  0.097-   7 2.49  58 2.51   9 2.52   1 2.54  55 2.55  14 2.56  18 2.58   5 2.59
                            16 2.63
  52  0.004  0.249  0.381-  57 2.44  59 2.46  60 2.48  19 2.51  17 2.51   2 2.52   6 2.53  56 2.54
                             8 2.56
  53  0.499  0.252  0.095-  55 2.53   7 2.54  20 2.54  49 2.55   3 2.58  25 2.58  12 2.58  10 2.59
                            23 2.60
  54  0.505  0.252  0.388-  28 2.46   4 2.49  13 2.49   8 2.50  24 2.50  21 2.53  56 2.53  26 2.54
                            50 2.56
  55  0.749  0.251  0.096-  14 2.51  27 2.51  53 2.53   5 2.54  51 2.55   3 2.55  12 2.55  23 2.57
                            16 2.60
  56  0.754  0.249  0.386-  28 2.46  17 2.49  15 2.49  60 2.51   4 2.51   6 2.51  24 2.53  54 2.53
                            52 2.54
  57  0.916  0.085  0.289-  52 2.44  48 2.48  11 2.48  60 2.50  59 2.51   6 2.52  14 2.52  64 2.53
                            47 2.55  15 2.56   9 2.57   2 2.64
  58  0.083  0.417  0.192-  37 2.47  36 2.49  59 2.50  51 2.51  60 2.52  18 2.53  33 2.55  14 2.56
                            16 2.57  27 2.59  22 2.60   9 2.62
  59  0.167  0.331  0.287-  52 2.46  11 2.47  26 2.47  37 2.49  58 2.50  57 2.51  61 2.52   9 2.53
                            19 2.54  60 2.54  22 2.56   8 2.67
  60  0.915  0.332  0.289-  52 2.48  14 2.50  37 2.50  57 2.50  56 2.51  28 2.52  58 2.52  17 2.53
                            43 2.54  59 2.54  27 2.56  15 2.56
  61  0.414  0.583  0.289-  26 2.46  19 2.49  37 2.49  35 2.51  63 2.51  42 2.51  59 2.52  47 2.52
                            40 2.53  36 2.54  22 2.58  21 2.66
  62  0.582  0.915  0.192-  47 2.46  34 2.49   3 2.50  14 2.51  63 2.52   5 2.52  12 2.52  64 2.55
                            15 2.55  36 2.56  40 2.56  45 2.59
  63  0.411  0.829  0.288-  35 2.50  61 2.51  47 2.51  62 2.52  37 2.52  45 2.52  15 2.53  46 2.53
                            36 2.54  32 2.56  13 2.57   4 2.66
  64  0.834  0.915  0.192-   1 2.51  47 2.51  48 2.52  57 2.53   9 2.54  44 2.54  41 2.54  38 2.55
                            62 2.55  40 2.57   5 2.58  14 2.59
 

IMPORTANT INFORMATION: All symmetrisations will be switched off!
NOSYMM: (Re-)initialisation of all symmetry stuff for point group C_1.

 
 

Automatic generation of k-mesh.
 generate k-points for:    4    4    2
Space group operators:
 irot       det(A)        alpha          n_x          n_y          n_z        tau_x        tau_y        tau_z
    1     1.000000     0.000000     1.000000     0.000000     0.000000     0.000000     0.000000     0.000000
 
 Subroutine IBZKPT returns following result:
 ===========================================
 
 Found     20 irreducible k-points:
 
 Following reciprocal coordinates:
            Coordinates               Weight
  0.000000  0.000000  0.000000      1.000000
  0.250000  0.000000  0.000000      2.000000
  0.500000  0.000000  0.000000      1.000000
  0.000000  0.250000  0.000000      2.000000
  0.250000  0.250000  0.000000      2.000000
  0.500000  0.250000  0.000000      2.000000
 -0.250000  0.250000  0.000000      2.000000
  0.000000  0.500000  0.000000      1.000000
  0.250000  0.500000  0.000000      2.000000
  0.500000  0.500000  0.000000      1.000000
  0.000000  0.000000  0.500000      1.000000
  0.250000  0.000000  0.500000      2.000000
  0.500000  0.000000  0.500000      1.000000
  0.000000  0.250000  0.500000      2.000000
  0.250000  0.250000  0.500000      2.000000
  0.500000  0.250000  0.500000      2.000000
 -0.250000  0.250000  0.500000      2.000000
  0.000000  0.500000  0.500000      1.000000
  0.250000  0.500000  0.500000      2.000000
  0.500000  0.500000  0.500000      1.000000
 
 Following cartesian coordinates:
            Coordinates               Weight
  0.000000  0.000000  0.000000      1.000000
  0.024724  0.014274  0.000000      2.000000
  0.049448  0.028549  0.000000      1.000000
  0.000000  0.028549  0.000000      2.000000
  0.024724  0.042823  0.000000      2.000000
  0.049448  0.057098  0.000000      2.000000
 -0.024724  0.014274  0.000000      2.000000
  0.000000  0.057098  0.000000      1.000000
  0.024724  0.071372  0.000000      2.000000
  0.049448  0.085646  0.000000      1.000000
  0.000000  0.000000  0.023511      1.000000
  0.024724  0.014274  0.023511      2.000000
  0.049448  0.028549  0.023511      1.000000
  0.000000  0.028549  0.023511      2.000000
  0.024724  0.042823  0.023511      2.000000
  0.049448  0.057098  0.023511      2.000000
 -0.024724  0.014274  0.023511      2.000000
  0.000000  0.057098  0.023511      1.000000
  0.024724  0.071372  0.023511      2.000000
  0.049448  0.085646  0.023511      1.000000
 
 TETIRR: Found     96 inequivalent tetrahedra from      192


--------------------------------------------------------------------------------------------------------




 Dimension of arrays:
   k-points           NKPTS =     20   k-points in BZ     NKDIM =     20   number of bands    NBANDS=    408
   number of dos      NEDOS =    301   number of ions     NIONS =     64
   non local maximal  LDIM  =      6   non local SUM 2l+1 LMDIM =     18
   total plane-waves  NPLWV = ******
   max r-space proj   IRMAX =   8269   max aug-charges    IRDMAX=  19568
   dimension x,y,z NGX =    80 NGY =   80 NGZ =  160
   dimension x,y,z NGXF=   160 NGYF=  160 NGZF=  320
   support grid    NGXF=   160 NGYF=  160 NGZF=  320
   ions per type =              48  16
   NGX,Y,Z   is equivalent  to a cutoff of  13.15, 13.15, 12.51 a.u.
   NGXF,Y,Z  is equivalent  to a cutoff of  26.31, 26.31, 25.02 a.u.

 SYSTEM =  SQS-NiFe                                
 POSCAR =  POSCAR                                  

 Startparameter for this run:
   NWRITE =      2    write-flag & timer
   PREC   = accura    normal or accurate (medium, high low for compatibility)
   ISTART =      0    job   : 0-new  1-cont  2-samecut
   ICHARG =     11    charge: 1-file 2-atom 10-const
   ISPIN  =      2    spin polarized calculation?
   LNONCOLLINEAR =      F non collinear calculations
   LSORBIT =      F    spin-orbit coupling
   INIWAV =      1    electr: 0-lowe 1-rand  2-diag
   LASPH  =      F    aspherical Exc in radial PAW
   METAGGA=      F    non-selfconsistent MetaGGA calc.

 Electronic Relaxation 1
   ENCUT  =  520.0 eV  38.22 Ry    6.18 a.u.  18.80 18.80 39.54*2*pi/ulx,y,z
   ENINI  =  520.0     initial cutoff
   ENAUG  =  544.6 eV  augmentation charge cutoff
   NELM   =    200;   NELMIN=  2; NELMDL= -5     # of ELM steps 
   EDIFF  = 0.1E-05   stopping-criterion for ELM
   LREAL  =      T    real-space projection
   NLSPLINE    = F    spline interpolate recip. space projectors
   LCOMPAT=      F    compatible to vasp.4.4
   GGA_COMPAT  = T    GGA compatible to vasp.4.4-vasp.4.6
   LMAXPAW     = -100 max onsite density
   LMAXMIX     =    2 max onsite mixed and CHGCAR
   VOSKOWN=      0    Vosko Wilk Nusair interpolation
   ROPT   =   -0.00025  -0.00025
 Ionic relaxation
   EDIFFG = -.2E-01   stopping-criterion for IOM
   NSW    =      0    number of steps for IOM
   NBLOCK =      1;   KBLOCK =      1    inner block; outer block 
   IBRION =     -1    ionic relax: 0-MD 1-quasi-New 2-CG
   NFREE  =      0    steps in history (QN), initial steepest desc. (CG)
   ISIF   =      2    stress and relaxation
   IWAVPR =     10    prediction:  0-non 1-charg 2-wave 3-comb
   ISYM   =      0    0-nonsym 1-usesym 2-fastsym
   LCORR  =      T    Harris-Foulkes like correction to forces

   POTIM  = 0.5000    time-step for ionic-motion
   TEIN   =    0.0    initial temperature
   TEBEG  =    0.0;   TEEND  =   0.0 temperature during run
   SMASS  =  -3.00    Nose mass-parameter (am)
   estimated Nose-frequenzy (Omega)   =  0.10E-29 period in steps =****** mass=  -0.234E-26a.u.
   SCALEE = 1.0000    scale energy and forces
   NPACO  =    256;   APACO  = 16.0  distance and # of slots for P.C.
   PSTRESS=    0.0 pullay stress

  Mass of Ions in am
   POMASS =  55.85 58.69
  Ionic Valenz
   ZVAL   =   8.00 10.00
  Atomic Wigner-Seitz radii
   RWIGS  =  -1.00 -1.00
  virtual crystal weights 
   VCA    =   1.00  1.00
   NELECT =     544.0000    total number of electrons
   NUPDOWN=      -1.0000    fix difference up-down

 DOS related values:
   EMIN   =  10.00;   EMAX   =-10.00  energy-range for DOS
   EFERMI =   0.00
   ISMEAR =    -5;   SIGMA  =   0.20  broadening in eV -4-tet -1-fermi 0-gaus

 Electronic relaxation 2 (details)
   IALGO  =     68    algorithm
   LDIAG  =      T    sub-space diagonalisation (order eigenvalues)
   LSUBROT=      F    optimize rotation matrix (better conditioning)
   TURBO    =      0    0=normal 1=particle mesh
   IRESTART =      0    0=no restart 2=restart with 2 vectors
   NREBOOT  =      0    no. of reboots
   NMIN     =      0    reboot dimension
   EREF     =   0.00    reference energy to select bands
   IMIX   =      4    mixing-type and parameters
     AMIX     =   0.40;   BMIX     =  1.00
     AMIX_MAG =   1.60;   BMIX_MAG =  1.00
     AMIN     =   0.10
     WC   =   100.;   INIMIX=   1;  MIXPRE=   1;  MAXMIX= -45

 Intra band minimization:
   WEIMIN = 0.0000     energy-eigenvalue tresh-hold
   EBREAK =  0.61E-09  absolut break condition
   DEPER  =   0.30     relativ break condition  

   TIME   =   0.40     timestep for ELM

  volume/ion in A,a.u.               =      29.42       198.56
  Fermi-wavevector in a.u.,A,eV,Ry     =   1.082228  2.045114 15.935370  1.171217
  Thomas-Fermi vector in A             =   2.218264
 
 Write flags
   LWAVE        =      F    write WAVECAR
   LDOWNSAMPLE  =      F    k-point downsampling of WAVECAR
   LCHARG       =      F    write CHGCAR
   LVTOT        =      F    write LOCPOT, total local potential
   LVHAR        =      F    write LOCPOT, Hartree potential only
   LELF         =      F    write electronic localiz. function (ELF)
   LORBIT       =     11    0 simple, 1 ext, 2 COOP (PROOUT), +10 PAW based schemes


 Dipole corrections
   LMONO  =      F    monopole corrections only (constant potential shift)
   LDIPOL =      T    correct potential (dipole corrections)
   IDIPOL =      3    1-x, 2-y, 3-z, 4-all directions 
   EPSILON=  1.0000000 bulk dielectric constant

 Exchange correlation treatment:
   GGA     =    --    GGA type
   LEXCH   =     8    internal setting for exchange type
   VOSKOWN=      0    Vosko Wilk Nusair interpolation
   LHFCALC =     F    Hartree Fock is set to
   LHFONE  =     F    Hartree Fock one center treatment
   AEXX    =    0.0000 exact exchange contribution

 Linear response parameters
   LEPSILON=     F    determine dielectric tensor
   LRPA    =     F    only Hartree local field effects (RPA)
   LNABLA  =     F    use nabla operator in PAW spheres
   LVEL    =     F    velocity operator in full k-point grid
   LINTERFAST=   F  fast interpolation
   KINTER  =     0    interpolate to denser k-point grid
   CSHIFT  =0.1000    complex shift for real part using Kramers Kronig
   OMEGAMAX=  -1.0    maximum frequency
   DEG_THRESHOLD= 0.2000000E-02 threshold for treating states as degnerate
   RTIME   =   -0.100 relaxation time in fs
  (WPLASMAI=    0.000 imaginary part of plasma frequency in eV, 0.658/RTIME)
   DFIELD  = 0.0000000 0.0000000 0.0000000 field for delta impulse in time
 
 Orbital magnetization related:
   ORBITALMAG=     F  switch on orbital magnetization
   LCHIMAG   =     F  perturbation theory with respect to B field
   DQ        =  0.001000  dq finite difference perturbation B field
   LLRAUG    =     F  two centre corrections for induced B field



--------------------------------------------------------------------------------------------------------


 Static calculation
 charge density and potential remain constant during run
 spin polarized calculation
 RMM-DIIS sequential band-by-band and
  variant of blocked Davidson during initial phase
 perform sub-space diagonalisation
    before iterative eigenvector-optimisation
 no mixing
 using additional bands          136
 real space projection scheme for non local part
 use partial core corrections
 calculate Harris-corrections to forces 
   (improved forces if not selfconsistent)
 use gradient corrections 
 WARNING: stress and forces are not correct
  (second derivative of E(xc) not defined)
 use of overlap-Matrix (Vanderbilt PP)
 Fermi weights with tetrahedron method with Bloechl corrections


--------------------------------------------------------------------------------------------------------


  energy-cutoff  :      520.00
  volume of cell :     1883.07
      direct lattice vectors                 reciprocal lattice vectors
    10.111630000  0.000000000  0.000000000     0.098896024  0.057097646  0.000000000
    -5.055815000  8.756928450  0.000000000     0.000000000  0.114195292  0.000000000
     0.000000000  0.000000000 21.266428300     0.000000000  0.000000000  0.047022471

  length of vectors
    10.111630000 10.111629997 21.266428300     0.114195292  0.114195292  0.047022471


 
 k-points in units of 2pi/SCALE and weight: read from INCAR                         
   0.00000000  0.00000000  0.00000000       0.031
   0.02472401  0.01427441  0.00000000       0.062
   0.04944801  0.02854882  0.00000000       0.031
   0.00000000  0.02854882  0.00000000       0.062
   0.02472401  0.04282323  0.00000000       0.062
   0.04944801  0.05709765  0.00000000       0.062
  -0.02472401  0.01427441  0.00000000       0.062
   0.00000000  0.05709765  0.00000000       0.031
   0.02472401  0.07137206  0.00000000       0.062
   0.04944801  0.08564647  0.00000000       0.031
   0.00000000  0.00000000  0.02351124       0.031
   0.02472401  0.01427441  0.02351124       0.062
   0.04944801  0.02854882  0.02351124       0.031
   0.00000000  0.02854882  0.02351124       0.062
   0.02472401  0.04282323  0.02351124       0.062
   0.04944801  0.05709765  0.02351124       0.062
  -0.02472401  0.01427441  0.02351124       0.062
   0.00000000  0.05709765  0.02351124       0.031
   0.02472401  0.07137206  0.02351124       0.062
   0.04944801  0.08564647  0.02351124       0.031
 
 k-points in reciprocal lattice and weights: read from INCAR                         
   0.00000000  0.00000000  0.00000000       0.031
   0.25000000  0.00000000  0.00000000       0.062
   0.50000000  0.00000000  0.00000000       0.031
   0.00000000  0.25000000  0.00000000       0.062
   0.25000000  0.25000000  0.00000000       0.062
   0.50000000  0.25000000  0.00000000       0.062
  -0.25000000  0.25000000  0.00000000       0.062
   0.00000000  0.50000000  0.00000000       0.031
   0.25000000  0.50000000  0.00000000       0.062
   0.50000000  0.50000000  0.00000000       0.031
   0.00000000  0.00000000  0.50000000       0.031
   0.25000000  0.00000000  0.50000000       0.062
   0.50000000  0.00000000  0.50000000       0.031
   0.00000000  0.25000000  0.50000000       0.062
   0.25000000  0.25000000  0.50000000       0.062
   0.50000000  0.25000000  0.50000000       0.062
  -0.25000000  0.25000000  0.50000000       0.062
   0.00000000  0.50000000  0.50000000       0.031
   0.25000000  0.50000000  0.50000000       0.062
   0.50000000  0.50000000  0.50000000       0.031
 
 position of ions in fractional coordinates (direct lattice) 
   0.00194700  0.99920000  0.09682937
   0.00107326  0.99896689  0.39122409
   0.49880600  0.99647600  0.09614542
   0.50199854  0.00442059  0.38993484
   0.74316000  0.99645900  0.09443074
   0.75277095  0.99958869  0.38620520
   0.24913600  0.25322600  0.09681044
   0.25526753  0.24652320  0.39025038
   0.08873200  0.16149400  0.19059152
   0.32962600  0.16609800  0.19506268
   0.16234937  0.08604897  0.29495344
   0.58333000  0.16550300  0.19443696
   0.41342372  0.08410160  0.29368324
   0.82651500  0.16651000  0.19326268
   0.66079202  0.07994943  0.29155648
   0.00320800  0.51090900  0.09451343
   0.00045802  0.49450577  0.38717282
   0.25586900  0.50577700  0.09734648
   0.25277163  0.49525341  0.38520482
   0.49960200  0.50304900  0.09754098
   0.50187053  0.50086878  0.39264342
   0.33859900  0.41583700  0.18939337
   0.75679100  0.50804300  0.09630935
   0.75375402  0.49817260  0.39410240
   0.58633600  0.42229400  0.19423576
   0.41518607  0.34065103  0.29376141
   0.82677100  0.41676200  0.19199494
   0.66745403  0.33331620  0.29396130
   0.99180600  0.74702800  0.09571304
   0.99887881  0.74638264  0.39317768
   0.25104600  0.74563900  0.09703639
   0.25057053  0.74597437  0.38794468
   0.08604600  0.67086900  0.19220225
   0.50153700  0.74905700  0.09752875
   0.49825464  0.75244237  0.38394690
   0.33005900  0.66135600  0.19018621
   0.16516765  0.57677132  0.28797888
   0.74777500  0.74863100  0.09404494
   0.75328672  0.75234299  0.39360727
   0.58008200  0.66096300  0.19152733
   0.83213700  0.66199500  0.19303528
   0.66500274  0.58788240  0.29554969
   0.91605936  0.58289400  0.29283791
   0.08603600  0.91635500  0.19371195
   0.32743000  0.91932200  0.19293658
   0.16227157  0.83181414  0.29325135
   0.66203252  0.83420045  0.28693415
   0.91251303  0.83763061  0.29234221
   0.24916500  0.99813100  0.09559832
   0.25299521  0.99848081  0.38929704
   0.00129700  0.24974200  0.09658595
   0.00416083  0.24850076  0.38148500
   0.49933100  0.25162700  0.09537266
   0.50503780  0.25237461  0.38823976
   0.74944200  0.25071300  0.09573080
   0.75352333  0.24860411  0.38593886
   0.91629876  0.08454538  0.28856766
   0.08260800  0.41708000  0.19225321
   0.16656385  0.33139684  0.28689316
   0.91540093  0.33182419  0.28878065
   0.41420109  0.58278596  0.28909478
   0.58190700  0.91526900  0.19241277
   0.41123479  0.82940556  0.28759341
   0.83399900  0.91457100  0.19240403
 
 position of ions in cartesian coordinates  (Angst):
  -5.03208300  8.74992291  2.05921485
  -5.03973939  8.74788155  8.31993898
   0.00574341  8.72606903  2.04466968
   5.05367382  0.03871080  8.29252130
   2.47664659  8.72592017  2.00820456
   2.55800589  8.75332661  8.21320526
   1.23890724  2.21748196  2.05881228
   1.33479514  2.15878606  8.29923177
   0.08074137  1.41419140  4.05320089
   2.49329539  1.45450830  4.14828650
   1.20656915  0.75352463  6.27260622
   5.06166458  1.44929793  4.13497967
   3.75518552  0.73647173  6.24559347
   7.51557011  1.45811616  4.11000693
   6.27747493  0.70011143  6.20036494
  -2.55062328  4.47399356  2.00996308
  -2.49549842  4.33035167  8.23378312
   0.03013771  4.42905300  2.07021194
   0.05202363  4.33689867  8.19193064
   2.50846789  4.40516410  2.07434826
   2.54242920  4.38607208  8.35012303
   1.32139286  3.64145486  4.02772052
   5.08381916  4.44889620  2.04815589
   5.10301329  4.36246177  8.38115048
   3.79377235  3.69799834  4.13070086
   2.47593931  2.98305668  6.24725592
   6.25293088  3.64955501  4.08304663
   5.06386312  2.91882615  6.25150691
   6.25193994  6.54167075  2.03547450
   6.32672044  6.53601937  8.36148494
  -1.23132858  6.52950737  2.06361743
  -1.23783190  6.53244416  8.25019777
  -2.52172424  5.87475183  4.08745537
   1.28426296  6.55943855  2.07408817
   1.23395714  6.58908398  8.16517926
  -0.00625910  5.79144717  4.04458140
  -1.24593492  5.05074518  6.12428228
   3.77628428  6.55570810  1.99999997
   3.81324960  6.58821377  8.37062071
   2.52386790  5.78800570  4.07310223
   5.06733720  5.79704285  4.10517094
   3.75203699  5.14804411  6.28528637
   6.31584907  5.10436103  6.22761640
  -3.76295716  8.02445517  4.11956130
  -1.33707095  8.05043698  4.10307195
  -2.56466827  7.28413688  6.23640886
   2.47666468  7.30503368  6.10206461
   4.99208875  7.33507129  6.21707461
  -2.52690139  8.74056175  2.03303482
  -2.48994027  8.74362498  8.27895750
  -1.24953457  2.18697282  2.05403818
  -1.21430112  2.17610339  8.11282347
   3.77687076  2.20347964  2.02823584
   3.83079607  2.21002640  8.25647299
   6.31052166  2.19547580  2.03585219
   6.36245273  2.17700839  8.20754099
   8.83782821  0.74035788  6.13680350
  -1.27337779  3.65233972  4.08853911
   0.00875091  2.90201840  6.10119279
   7.57855380  2.90576070  6.14133300
   1.24179012  5.10341496  6.14801347
   1.25659754  8.01494515  4.09193238
  -0.03506707  7.26304516  6.11608465
   3.80918753  8.00883281  4.09174651
 


--------------------------------------------------------------------------------------------------------


 k-point  1 :   0.0000 0.0000 0.0000  plane waves:   50761
 k-point  2 :   0.2500 0.0000 0.0000  plane waves:   50693
 k-point  3 :   0.5000 0.0000 0.0000  plane waves:   50702
 k-point  4 :   0.0000 0.2500 0.0000  plane waves:   50693
 k-point  5 :   0.2500 0.2500 0.0000  plane waves:   50697
 k-point  6 :   0.5000 0.2500 0.0000  plane waves:   50697
 k-point  7 :  -0.2500 0.2500 0.0000  plane waves:   50693
 k-point  8 :   0.0000 0.5000 0.0000  plane waves:   50702
 k-point  9 :   0.2500 0.5000 0.0000  plane waves:   50697
 k-point 10 :   0.5000 0.5000 0.0000  plane waves:   50702
 k-point 11 :   0.0000 0.0000 0.5000  plane waves:   50672
 k-point 12 :   0.2500 0.0000 0.5000  plane waves:   50666
 k-point 13 :   0.5000 0.0000 0.5000  plane waves:   50696
 k-point 14 :   0.0000 0.2500 0.5000  plane waves:   50666
 k-point 15 :   0.2500 0.2500 0.5000  plane waves:   50720
 k-point 16 :   0.5000 0.2500 0.5000  plane waves:   50720
 k-point 17 :  -0.2500 0.2500 0.5000  plane waves:   50666
 k-point 18 :   0.0000 0.5000 0.5000  plane waves:   50696
 k-point 19 :   0.2500 0.5000 0.5000  plane waves:   50720
 k-point 20 :   0.5000 0.5000 0.5000  plane waves:   50696

 maximum and minimum number of plane-waves per node :      2141     2086

 maximum number of plane-waves:     50761
 maximum index in each direction: 
   IXMAX=   19   IYMAX=   18   IZMAX=   39
   IXMIN=  -19   IYMIN=  -19   IZMIN=  -40


 real space projection operators:
  total allocation   :      68868.84 KBytes
  max/ min on nodes  :       3446.44       2582.58


 parallel 3D FFT for wavefunctions:
    minimum data exchange during FFTs selected (reduces bandwidth)
 parallel 3D FFT for charge:
    minimum data exchange during FFTs selected (reduces bandwidth)


 total amount of memory used by VASP MPI-rank0   256005. kBytes
=======================================================================

   base      :      30000. kBytes
   nonlr-proj:      13220. kBytes
   fftplans  :       6403. kBytes
   grid      :      16455. kBytes
   one-center:         93. kBytes
   wavefun   :     189834. kBytes
 
     INWAV:  cpu time    0.0000: real time    0.0001
 initial charge density was supplied:
 number of electron     544.0000107 magnetization     137.1455093
 keeping initial charge density in first step


--------------------------------------------------------------------------------------------------------


 Maximum index for non-local projection operator          759
 Maximum index for augmentation-charges         1104 (set IRDMAX)


--------------------------------------------------------------------------------------------------------


 First call to EWALD:  gamma=   0.144
 Maximum number of real-space cells 4x 4x 2
 Maximum number of reciprocal cells 2x 2x 4

    FEWALD:  cpu time    0.0040: real time    0.0038


--------------------------------------- Iteration      1(   1)  ---------------------------------------


    POTLOK:  cpu time    0.2470: real time    0.2547
    SETDIJ:  cpu time    0.0180: real time    0.0193
     EDDAV:  cpu time  100.2118: real time  100.5474
 BZINTS: Fermi energy: 10.448615;544.000000 electrons
         Band energy:3426.951771;  BLOECHL correction: -0.009751
       DOS:  cpu time    0.2020: real time    0.2023
    --------------------------------------------
      LOOP:  cpu time  100.6797: real time  101.0238

 eigenvalue-minimisations  : 32640
 total energy-change (2. order) : 0.4331847E+04  (-0.2287885E+05)
 number of electron     544.0000107 magnetization     137.1455093
 augmentation part      544.0000107 magnetization     137.1455093

 DIPCOR: dipole corrections for dipol
 direction  3 min pos   233,
 dipolmoment           0.000000      0.000000      0.024750 electrons x Angstroem
 Tr[quadrupol]     -9553.959648

 energy correction for charged system         0.000000 eV
 dipol+quadrupol energy correction           -0.000029 eV
 added-field ion interaction         -0.478239 eV  (added to PSCEN)


 Free energy of the ion-electron system (eV)
  ---------------------------------------------------
  alpha Z        PSCENC =      1433.22617675
  Ewald energy   TEWEN  =    164419.14697277
  -Hartree energ DENC   =   -209884.69156586
  -exchange      EXHF   =         0.00000000
  -V(xc)+E(xc)   XCENC  =       701.11003448
  PAW double counting   =     51494.26876637   -53027.90897103
  entropy T*S    EENTRO =         0.00000000
  eigenvalues    EBANDS =      3426.95177148
  atomic energy  EATOM  =     45769.74338420
  Solvation  Ediel_sol  =         0.00000000
  ---------------------------------------------------
  free energy    TOTEN  =      4331.84656917 eV

  energy without entropy =     4331.84656917  energy(sigma->0) =     4331.84656917


--------------------------------------------------------------------------------------------------------




--------------------------------------- Iteration      1(   2)  ---------------------------------------


     EDDAV:  cpu time   98.8020: real time   99.4755
 BZINTS: Fermi energy:  0.828476;544.000000 electrons
         Band energy:-971.641813;  BLOECHL correction: -0.007353
       DOS:  cpu time    0.1890: real time    0.1887
    --------------------------------------------
      LOOP:  cpu time   98.9900: real time   99.6642

 eigenvalue-minimisations  : 32640
 total energy-change (2. order) :-0.4398594E+04  (-0.4089165E+04)
 number of electron     544.0000107 magnetization     137.1455093
 augmentation part      544.0000107 magnetization     137.1455093

 DIPCOR: dipole corrections for dipol
 direction  3 min pos   233,
 dipolmoment           0.000000      0.000000      0.024750 electrons x Angstroem
 Tr[quadrupol]     -9553.959648

 energy correction for charged system         0.000000 eV
 dipol+quadrupol energy correction           -0.000029 eV
 added-field ion interaction         -0.478239 eV  (added to PSCEN)


 Free energy of the ion-electron system (eV)
  ---------------------------------------------------
  alpha Z        PSCENC =      1433.22617675
  Ewald energy   TEWEN  =    164419.14697277
  -Hartree energ DENC   =   -209884.69156586
  -exchange      EXHF   =         0.00000000
  -V(xc)+E(xc)   XCENC  =       701.11003448
  PAW double counting   =     51494.26876637   -53027.90897103
  entropy T*S    EENTRO =         0.00000000
  eigenvalues    EBANDS =      -971.64181308
  atomic energy  EATOM  =     45769.74338420
  Solvation  Ediel_sol  =         0.00000000
  ---------------------------------------------------
  free energy    TOTEN  =       -66.74701540 eV

  energy without entropy =      -66.74701540  energy(sigma->0) =      -66.74701540


--------------------------------------------------------------------------------------------------------




--------------------------------------- Iteration      1(   3)  ---------------------------------------


     EDDAV:  cpu time  102.0345: real time  102.6594
 BZINTS: Fermi energy: -0.208054;544.000000 electrons
         Band energy:***********;  BLOECHL correction: -0.146881
       DOS:  cpu time    0.1710: real time    0.1713
    --------------------------------------------
      LOOP:  cpu time  102.2055: real time  102.8307

 eigenvalue-minimisations  : 34086
 total energy-change (2. order) :-0.3734138E+03  (-0.3177290E+03)
 number of electron     544.0000107 magnetization     137.1455093
 augmentation part      544.0000107 magnetization     137.1455093

 DIPCOR: dipole corrections for dipol
 direction  3 min pos   233,
 dipolmoment           0.000000      0.000000      0.024750 electrons x Angstroem
 Tr[quadrupol]     -9553.959648

 energy correction for charged system         0.000000 eV
 dipol+quadrupol energy correction           -0.000029 eV
 added-field ion interaction         -0.478239 eV  (added to PSCEN)


 Free energy of the ion-electron system (eV)
  ---------------------------------------------------
  alpha Z        PSCENC =      1433.22617675
  Ewald energy   TEWEN  =    164419.14697277
  -Hartree energ DENC   =   -209884.69156586
  -exchange      EXHF   =         0.00000000
  -V(xc)+E(xc)   XCENC  =       701.11003448
  PAW double counting   =     51494.26876637   -53027.90897103
  entropy T*S    EENTRO =         0.00000000
  eigenvalues    EBANDS =     -1345.05563960
  atomic energy  EATOM  =     45769.74338420
  Solvation  Ediel_sol  =         0.00000000
  ---------------------------------------------------
  free energy    TOTEN  =      -440.16084192 eV

  energy without entropy =     -440.16084192  energy(sigma->0) =     -440.16084192


--------------------------------------------------------------------------------------------------------




--------------------------------------- Iteration      1(   4)  ---------------------------------------


     EDDAV:  cpu time  103.2553: real time  103.9475
 BZINTS: Fermi energy: -0.246045;544.000000 electrons
         Band energy:***********;  BLOECHL correction: -0.142088
       DOS:  cpu time    0.1890: real time    0.1894
    --------------------------------------------
      LOOP:  cpu time  103.4443: real time  104.1370

 eigenvalue-minimisations  : 34653
 total energy-change (2. order) :-0.1500609E+02  (-0.1463548E+02)
 number of electron     544.0000107 magnetization     137.1455093
 augmentation part      544.0000107 magnetization     137.1455093

 DIPCOR: dipole corrections for dipol
 direction  3 min pos   233,
 dipolmoment           0.000000      0.000000      0.024750 electrons x Angstroem
 Tr[quadrupol]     -9553.959648

 energy correction for charged system         0.000000 eV
 dipol+quadrupol energy correction           -0.000029 eV
 added-field ion interaction         -0.478239 eV  (added to PSCEN)


 Free energy of the ion-electron system (eV)
  ---------------------------------------------------
  alpha Z        PSCENC =      1433.22617675
  Ewald energy   TEWEN  =    164419.14697277
  -Hartree energ DENC   =   -209884.69156586
  -exchange      EXHF   =         0.00000000
  -V(xc)+E(xc)   XCENC  =       701.11003448
  PAW double counting   =     51494.26876637   -53027.90897103
  entropy T*S    EENTRO =         0.00000000
  eigenvalues    EBANDS =     -1360.06173349
  atomic energy  EATOM  =     45769.74338420
  Solvation  Ediel_sol  =         0.00000000
  ---------------------------------------------------
  free energy    TOTEN  =      -455.16693581 eV

  energy without entropy =     -455.16693581  energy(sigma->0) =     -455.16693581


--------------------------------------------------------------------------------------------------------




--------------------------------------- Iteration      1(   5)  ---------------------------------------


     EDDAV:  cpu time  108.4655: real time  108.8757
 BZINTS: Fermi energy: -0.246855;544.000000 electrons
         Band energy:***********;  BLOECHL correction: -0.141853
       DOS:  cpu time    0.1930: real time    0.1928
    --------------------------------------------
      LOOP:  cpu time  108.6585: real time  109.0684

 eigenvalue-minimisations  : 36657
 total energy-change (2. order) :-0.2581310E+00  (-0.2579567E+00)
 number of electron     544.0000107 magnetization     137.1455093
 augmentation part      544.0000107 magnetization     137.1455093

 DIPCOR: dipole corrections for dipol
 direction  3 min pos   233,
 dipolmoment           0.000000      0.000000      0.024750 electrons x Angstroem
 Tr[quadrupol]     -9553.959648

 energy correction for charged system         0.000000 eV
 dipol+quadrupol energy correction           -0.000029 eV
 added-field ion interaction         -0.478239 eV  (added to PSCEN)


 Free energy of the ion-electron system (eV)
  ---------------------------------------------------
  alpha Z        PSCENC =      1433.22617675
  Ewald energy   TEWEN  =    164419.14697277
  -Hartree energ DENC   =   -209884.69156586
  -exchange      EXHF   =         0.00000000
  -V(xc)+E(xc)   XCENC  =       701.11003448
  PAW double counting   =     51494.26876637   -53027.90897103
  entropy T*S    EENTRO =         0.00000000
  eigenvalues    EBANDS =     -1360.31986452
  atomic energy  EATOM  =     45769.74338420
  Solvation  Ediel_sol  =         0.00000000
  ---------------------------------------------------
  free energy    TOTEN  =      -455.42506683 eV

  energy without entropy =     -455.42506683  energy(sigma->0) =     -455.42506683


--------------------------------------------------------------------------------------------------------




--------------------------------------- Iteration      1(   6)  ---------------------------------------


    EDDIAG:  cpu time   14.8447: real time   14.8758
  RMM-DIIS:  cpu time   62.9344: real time   63.2765
    ORTHCH:  cpu time    2.5946: real time    2.6035
 BZINTS: Fermi energy: -0.246883;544.000000 electrons
         Band energy:***********;  BLOECHL correction: -0.141847
       DOS:  cpu time    0.1920: real time    0.1927
    --------------------------------------------
      LOOP:  cpu time   80.5658: real time   80.9485

 eigenvalue-minimisations  : 33844
 total energy-change (2. order) :-0.8259749E-02  (-0.8260273E-02)
 number of electron     544.0000107 magnetization     137.1455093
 augmentation part      544.0000107 magnetization     137.1455093

 DIPCOR: dipole corrections for dipol
 direction  3 min pos   233,
 dipolmoment           0.000000      0.000000      0.024750 electrons x Angstroem
 Tr[quadrupol]     -9553.959648

 energy correction for charged system         0.000000 eV
 dipol+quadrupol energy correction           -0.000029 eV
 added-field ion interaction         -0.478239 eV  (added to PSCEN)


 Free energy of the ion-electron system (eV)
  ---------------------------------------------------
  alpha Z        PSCENC =      1433.22617675
  Ewald energy   TEWEN  =    164419.14697277
  -Hartree energ DENC   =   -209884.69156586
  -exchange      EXHF   =         0.00000000
  -V(xc)+E(xc)   XCENC  =       701.11003448
  PAW double counting   =     51494.26876637   -53027.90897103
  entropy T*S    EENTRO =         0.00000000
  eigenvalues    EBANDS =     -1360.32812427
  atomic energy  EATOM  =     45769.74338420
  Solvation  Ediel_sol  =         0.00000000
  ---------------------------------------------------
  free energy    TOTEN  =      -455.43332658 eV

  energy without entropy =     -455.43332658  energy(sigma->0) =     -455.43332658


--------------------------------------------------------------------------------------------------------




--------------------------------------- Iteration      1(   7)  ---------------------------------------


    EDDIAG:  cpu time   15.4746: real time   15.5401
  RMM-DIIS:  cpu time   90.5212: real time   91.4391
    ORTHCH:  cpu time    2.5156: real time    2.5209
 BZINTS: Fermi energy: -0.246887;544.000000 electrons
         Band energy:***********;  BLOECHL correction: -0.141846
       DOS:  cpu time    0.1920: real time    0.1912
    --------------------------------------------
      LOOP:  cpu time  108.7035: real time  109.6913

 eigenvalue-minimisations  : 49776
 total energy-change (2. order) :-0.2245354E-02  (-0.2240737E-02)
 number of electron     544.0000107 magnetization     137.1455093
 augmentation part      544.0000107 magnetization     137.1455093

 DIPCOR: dipole corrections for dipol
 direction  3 min pos   233,
 dipolmoment           0.000000      0.000000      0.024750 electrons x Angstroem
 Tr[quadrupol]     -9553.959648

 energy correction for charged system         0.000000 eV
 dipol+quadrupol energy correction           -0.000029 eV
 added-field ion interaction         -0.478239 eV  (added to PSCEN)


 Free energy of the ion-electron system (eV)
  ---------------------------------------------------
  alpha Z        PSCENC =      1433.22617675
  Ewald energy   TEWEN  =    164419.14697277
  -Hartree energ DENC   =   -209884.69156586
  -exchange      EXHF   =         0.00000000
  -V(xc)+E(xc)   XCENC  =       701.11003448
  PAW double counting   =     51494.26876637   -53027.90897103
  entropy T*S    EENTRO =         0.00000000
  eigenvalues    EBANDS =     -1360.33036962
  atomic energy  EATOM  =     45769.74338420
  Solvation  Ediel_sol  =         0.00000000
  ---------------------------------------------------
  free energy    TOTEN  =      -455.43557194 eV

  energy without entropy =     -455.43557194  energy(sigma->0) =     -455.43557194


--------------------------------------------------------------------------------------------------------




--------------------------------------- Iteration      1(   8)  ---------------------------------------


    EDDIAG:  cpu time   14.8817: real time   14.9204
  RMM-DIIS:  cpu time   89.1294: real time   89.7014
    ORTHCH:  cpu time    2.5576: real time    2.5660
 BZINTS: Fermi energy: -0.246887;544.000000 electrons
         Band energy:***********;  BLOECHL correction: -0.141846
       DOS:  cpu time    0.1760: real time    0.1755
    --------------------------------------------
      LOOP:  cpu time  106.7448: real time  107.3633

 eigenvalue-minimisations  : 48929
 total energy-change (2. order) :-0.5459579E-04  (-0.5215492E-04)
 number of electron     544.0000107 magnetization     137.1455093
 augmentation part      544.0000107 magnetization     137.1455093

 DIPCOR: dipole corrections for dipol
 direction  3 min pos   233,
 dipolmoment           0.000000      0.000000      0.024750 electrons x Angstroem
 Tr[quadrupol]     -9553.959648

 energy correction for charged system         0.000000 eV
 dipol+quadrupol energy correction           -0.000029 eV
 added-field ion interaction         -0.478239 eV  (added to PSCEN)


 Free energy of the ion-electron system (eV)
  ---------------------------------------------------
  alpha Z        PSCENC =      1433.22617675
  Ewald energy   TEWEN  =    164419.14697277
  -Hartree energ DENC   =   -209884.69156586
  -exchange      EXHF   =         0.00000000
  -V(xc)+E(xc)   XCENC  =       701.11003448
  PAW double counting   =     51494.26876637   -53027.90897103
  entropy T*S    EENTRO =         0.00000000
  eigenvalues    EBANDS =     -1360.33042422
  atomic energy  EATOM  =     45769.74338420
  Solvation  Ediel_sol  =         0.00000000
  ---------------------------------------------------
  free energy    TOTEN  =      -455.43562653 eV

  energy without entropy =     -455.43562653  energy(sigma->0) =     -455.43562653


--------------------------------------------------------------------------------------------------------




--------------------------------------- Iteration      1(   9)  ---------------------------------------


    EDDIAG:  cpu time   14.7888: real time   14.8166
  RMM-DIIS:  cpu time   55.9335: real time   56.4013
    ORTHCH:  cpu time    2.5966: real time    2.6025
 BZINTS: Fermi energy: -0.246887;544.000000 electrons
         Band energy:***********;  BLOECHL correction: -0.141846
       DOS:  cpu time    0.1860: real time    0.1862
    --------------------------------------------
      LOOP:  cpu time   73.5048: real time   74.0065

 eigenvalue-minimisations  : 29666
 total energy-change (2. order) :-0.2376561E-04  (-0.2367092E-04)
 number of electron     544.0000107 magnetization     137.1455093
 augmentation part      544.0000107 magnetization     137.1455093

 DIPCOR: dipole corrections for dipol
 direction  3 min pos   233,
 dipolmoment           0.000000      0.000000      0.024750 electrons x Angstroem
 Tr[quadrupol]     -9553.959648

 energy correction for charged system         0.000000 eV
 dipol+quadrupol energy correction           -0.000029 eV
 added-field ion interaction         -0.478239 eV  (added to PSCEN)


 Free energy of the ion-electron system (eV)
  ---------------------------------------------------
  alpha Z        PSCENC =      1433.22617675
  Ewald energy   TEWEN  =    164419.14697277
  -Hartree energ DENC   =   -209884.69156586
  -exchange      EXHF   =         0.00000000
  -V(xc)+E(xc)   XCENC  =       701.11003448
  PAW double counting   =     51494.26876637   -53027.90897103
  entropy T*S    EENTRO =         0.00000000
  eigenvalues    EBANDS =     -1360.33044798
  atomic energy  EATOM  =     45769.74338420
  Solvation  Ediel_sol  =         0.00000000
  ---------------------------------------------------
  free energy    TOTEN  =      -455.43565030 eV

  energy without entropy =     -455.43565030  energy(sigma->0) =     -455.43565030


--------------------------------------------------------------------------------------------------------




--------------------------------------- Iteration      1(  10)  ---------------------------------------


    EDDIAG:  cpu time   14.9447: real time   15.0566
  RMM-DIIS:  cpu time   41.9546: real time   42.0613
    ORTHCH:  cpu time    2.5916: real time    2.6014
 BZINTS: Fermi energy: -0.246887;544.000000 electrons
         Band energy:***********;  BLOECHL correction: -0.141846
       DOS:  cpu time    0.1900: real time    0.1907
    --------------------------------------------
      LOOP:  cpu time   59.6809: real time   59.9101

 eigenvalue-minimisations  : 21505
 total energy-change (2. order) :-0.1928245E-05  (-0.1281129E-05)
 number of electron     544.0000107 magnetization     137.1455093
 augmentation part      544.0000107 magnetization     137.1455093

 DIPCOR: dipole corrections for dipol
 direction  3 min pos   233,
 dipolmoment           0.000000      0.000000      0.024750 electrons x Angstroem
 Tr[quadrupol]     -9553.959648

 energy correction for charged system         0.000000 eV
 dipol+quadrupol energy correction           -0.000029 eV
 added-field ion interaction         -0.478239 eV  (added to PSCEN)


 Free energy of the ion-electron system (eV)
  ---------------------------------------------------
  alpha Z        PSCENC =      1433.22617675
  Ewald energy   TEWEN  =    164419.14697277
  -Hartree energ DENC   =   -209884.69156586
  -exchange      EXHF   =         0.00000000
  -V(xc)+E(xc)   XCENC  =       701.11003448
  PAW double counting   =     51494.26876637   -53027.90897103
  entropy T*S    EENTRO =         0.00000000
  eigenvalues    EBANDS =     -1360.33044991
  atomic energy  EATOM  =     45769.74338420
  Solvation  Ediel_sol  =         0.00000000
  ---------------------------------------------------
  free energy    TOTEN  =      -455.43565223 eV

  energy without entropy =     -455.43565223  energy(sigma->0) =     -455.43565223


--------------------------------------------------------------------------------------------------------




--------------------------------------- Iteration      1(  11)  ---------------------------------------


    EDDIAG:  cpu time   15.5156: real time   15.6762
  RMM-DIIS:  cpu time   40.6498: real time   40.9050
    ORTHCH:  cpu time    2.5366: real time    2.5600
 BZINTS: Fermi energy: -0.246887;544.000000 electrons
         Band energy:***********;  BLOECHL correction: -0.141846
       DOS:  cpu time    0.1830: real time    0.1834
    --------------------------------------------
      LOOP:  cpu time   58.8850: real time   59.3247

 eigenvalue-minimisations  : 20952
 total energy-change (2. order) :-0.7105991E-06  (-0.6849716E-06)
 number of electron     544.0000107 magnetization     137.1455093
 augmentation part      544.0000107 magnetization     137.1455093

 DIPCOR: dipole corrections for dipol
 direction  3 min pos   233,
 dipolmoment           0.000000      0.000000      0.024750 electrons x Angstroem
 Tr[quadrupol]     -9553.959648

 energy correction for charged system         0.000000 eV
 dipol+quadrupol energy correction           -0.000029 eV
 added-field ion interaction         -0.478239 eV  (added to PSCEN)


 Free energy of the ion-electron system (eV)
  ---------------------------------------------------
  alpha Z        PSCENC =      1433.22617675
  Ewald energy   TEWEN  =    164419.14697277
  -Hartree energ DENC   =   -209884.69156586
  -exchange      EXHF   =         0.00000000
  -V(xc)+E(xc)   XCENC  =       701.11003448
  PAW double counting   =     51494.26876637   -53027.90897103
  entropy T*S    EENTRO =         0.00000000
  eigenvalues    EBANDS =     -1360.33045062
  atomic energy  EATOM  =     45769.74338420
  Solvation  Ediel_sol  =         0.00000000
  ---------------------------------------------------
  free energy    TOTEN  =      -455.43565294 eV

  energy without entropy =     -455.43565294  energy(sigma->0) =     -455.43565294


--------------------------------------------------------------------------------------------------------




 average (electrostatic) potential at core
  the test charge radii are     1.0103  0.9791
  (the norm of the test charge is              1.0000)
       1 -49.5292       2 -49.5292       3 -49.5924       4 -49.5765       5 -49.5872
       6 -49.5731       7 -49.4807       8 -49.5106       9 -49.5272      10 -49.4740
      11 -49.5143      12 -49.4869      13 -49.4705      14 -49.6446      15 -49.5065
      16 -49.5267      17 -49.5083      18 -49.4521      19 -49.5179      20 -49.4596
      21 -49.4616      22 -49.4781      23 -49.4987      24 -49.5246      25 -49.4703
      26 -49.5292      27 -49.4996      28 -49.5104      29 -49.4493      30 -49.4988
      31 -49.4433      32 -49.4451      33 -49.4279      34 -49.4038      35 -49.4706
      36 -49.4909      37 -49.5735      38 -49.4334      39 -49.4417      40 -49.4528
      41 -49.4855      42 -49.4628      43 -49.4741      44 -49.4459      45 -49.4620
      46 -49.5034      47 -49.5209      48 -49.4761      49 -91.3816      50 -91.4267
      51 -91.3507      52 -91.4429      53 -91.3211      54 -91.4405      55 -91.3953
      56 -91.4259      57 -91.6421      58 -91.5736      59 -91.6784      60 -91.6139
      61 -91.6549      62 -91.6709      63 -91.6577      64 -91.6498
 
 
 
 E-fermi :  -0.2469     XC(G=0):  -5.9932     alpha+bet : -5.4739


 spin component 1

 k-point     1 :       0.0000    0.0000    0.0000
  band No.  band energies     occupation 
      1      -8.4633      1.00000
      2      -7.2609      1.00000
      3      -6.6428      1.00000
      4      -6.6374      1.00000
      5      -6.5821      1.00000
      6      -6.5692      1.00000
      7      -6.5299      1.00000
      8      -6.4927      1.00000
      9      -5.8308      1.00000
     10      -5.6666      1.00000
     11      -5.6582      1.00000
     12      -5.6394      1.00000
     13      -5.6162      1.00000
     14      -5.5913      1.00000
     15      -5.5818      1.00000
     16      -5.2874      1.00000
     17      -5.1427      1.00000
     18      -5.0833      1.00000
     19      -5.0373      1.00000
     20      -5.0283      1.00000
     21      -4.9859      1.00000
     22      -4.9595      1.00000
     23      -4.6733      1.00000
     24      -4.6595      1.00000
     25      -4.6560      1.00000
     26      -4.6373      1.00000
     27      -4.6167      1.00000
     28      -4.6119      1.00000
     29      -4.5909      1.00000
     30      -4.5806      1.00000
     31      -4.5604      1.00000
     32      -4.5551      1.00000
     33      -4.5453      1.00000
     34      -4.5382      1.00000
     35      -4.5176      1.00000
     36      -4.5158      1.00000
     37      -4.5011      1.00000
     38      -4.4836      1.00000
     39      -4.4727      1.00000
     40      -4.4688      1.00000
     41      -4.4553      1.00000
     42      -4.4547      1.00000
     43      -4.4414      1.00000
     44      -4.4372      1.00000
     45      -4.4241      1.00000
     46      -4.4094      1.00000
     47      -4.3896      1.00000
     48      -4.3858      1.00000
     49      -4.3742      1.00000
     50      -4.3577      1.00000
     51      -4.3481      1.00000
     52      -4.3144      1.00000
     53      -4.2843      1.00000
     54      -4.2793      1.00000
     55      -4.2707      1.00000
     56      -4.2490      1.00000
     57      -4.2280      1.00000
     58      -4.2260      1.00000
     59      -4.2155      1.00000
     60      -4.1933      1.00000
     61      -4.1574      1.00000
     62      -4.0992      1.00000
     63      -4.0652      1.00000
     64      -4.0465      1.00000
     65      -3.9617      1.00000
     66      -3.9337      1.00000
     67      -3.9237      1.00000
     68      -3.9081      1.00000
     69      -3.8967      1.00000
     70      -3.8853      1.00000
     71      -3.8756      1.00000
     72      -3.8537      1.00000
     73      -3.8526      1.00000
     74      -3.8414      1.00000
     75      -3.8280      1.00000
     76      -3.8181      1.00000
     77      -3.8134      1.00000
     78      -3.8003      1.00000
     79      -3.7968      1.00000
     80      -3.7779      1.00000
     81      -3.7738      1.00000
     82      -3.7281      1.00000
     83      -3.6690      1.00000
     84      -3.6294      1.00000
     85      -3.5974      1.00000
     86      -3.5923      1.00000
     87      -3.5683      1.00000
     88      -3.5531      1.00000
     89      -3.5389      1.00000
     90      -3.5313      1.00000
     91      -3.5312      1.00000
     92      -3.5158      1.00000
     93      -3.4988      1.00000
     94      -3.4970      1.00000
     95      -3.4792      1.00000
     96      -3.4638      1.00000
     97      -3.4586      1.00000
     98      -3.4406      1.00000
     99      -3.4368      1.00000
    100      -3.4110      1.00000
    101      -3.3943      1.00000
    102      -3.3937      1.00000
    103      -3.3746      1.00000
    104      -3.3412      1.00000
    105      -3.3308      1.00000
    106      -3.3081      1.00000
    107      -3.2932      1.00000
    108      -3.2721      1.00000
    109      -3.2358      1.00000
    110      -3.2200      1.00000
    111      -3.2160      1.00000
    112      -3.2048      1.00000
    113      -3.1957      1.00000
    114      -3.1406      1.00000
    115      -3.1262      1.00000
    116      -3.1098      1.00000
    117      -3.0914      1.00000
    118      -3.0837      1.00000
    119      -3.0788      1.00000
    120      -3.0709      1.00000
    121      -3.0581      1.00000
    122      -3.0470      1.00000
    123      -3.0377      1.00000
    124      -3.0259      1.00000
    125      -3.0179      1.00000
    126      -3.0144      1.00000
    127      -3.0003      1.00000
    128      -2.9922      1.00000
    129      -2.9763      1.00000
    130      -2.9648      1.00000
    131      -2.9504      1.00000
    132      -2.9211      1.00000
    133      -2.8939      1.00000
    134      -2.8846      1.00000
    135      -2.8506      1.00000
    136      -2.8360      1.00000
    137      -2.8289      1.00000
    138      -2.8165      1.00000
    139      -2.8088      1.00000
    140      -2.8063      1.00000
    141      -2.7951      1.00000
    142      -2.7856      1.00000
    143      -2.7787      1.00000
    144      -2.7715      1.00000
    145      -2.7585      1.00000
    146      -2.7510      1.00000
    147      -2.7444      1.00000
    148      -2.7402      1.00000
    149      -2.7273      1.00000
    150      -2.7247      1.00000
    151      -2.7160      1.00000
    152      -2.7130      1.00000
    153      -2.6930      1.00000
    154      -2.6896      1.00000
    155      -2.6868      1.00000
    156      -2.6767      1.00000
    157      -2.6689      1.00000
    158      -2.6668      1.00000
    159      -2.6608      1.00000
    160      -2.6511      1.00000
    161      -2.6343      1.00000
    162      -2.6288      1.00000
    163      -2.6263      1.00000
    164      -2.6185      1.00000
    165      -2.6123      1.00000
    166      -2.6043      1.00000
    167      -2.5908      1.00000
    168      -2.5866      1.00000
    169      -2.5784      1.00000
    170      -2.5653      1.00000
    171      -2.5608      1.00000
    172      -2.5537      1.00000
    173      -2.5424      1.00000
    174      -2.5410      1.00000
    175      -2.5378      1.00000
    176      -2.5317      1.00000
    177      -2.5147      1.00000
    178      -2.5042      1.00000
    179      -2.5031      1.00000
    180      -2.4974      1.00000
    181      -2.4945      1.00000
    182      -2.4886      1.00000
    183      -2.4809      1.00000
    184      -2.4770      1.00000
    185      -2.4758      1.00000
    186      -2.4578      1.00000
    187      -2.4550      1.00000
    188      -2.4463      1.00000
    189      -2.4416      1.00000
    190      -2.4319      1.00000
    191      -2.4159      1.00000
    192      -2.4137      1.00000
    193      -2.4042      1.00000
    194      -2.3924      1.00000
    195      -2.3815      1.00000
    196      -2.3786      1.00000
    197      -2.3686      1.00000
    198      -2.3637      1.00000
    199      -2.3537      1.00000
    200      -2.3425      1.00000
    201      -2.3356      1.00000
    202      -2.1948      1.00000
    203      -2.1775      1.00000
    204      -2.1514      1.00000
    205      -2.1451      1.00000
    206      -2.1280      1.00000
    207      -2.1245      1.00000
    208      -2.1132      1.00000
    209      -2.1019      1.00000
    210      -2.0946      1.00000
    211      -2.0835      1.00000
    212      -2.0726      1.00000
    213      -2.0603      1.00000
    214      -2.0538      1.00000
    215      -2.0481      1.00000
    216      -2.0291      1.00000
    217      -2.0229      1.00000
    218      -2.0020      1.00000
    219      -2.0000      1.00000
    220      -1.9656      1.00000
    221      -1.9600      1.00000
    222      -1.9422      1.00000
    223      -1.9364      1.00000
    224      -1.9214      1.00000
    225      -1.9170      1.00000
    226      -1.8979      1.00000
    227      -1.8895      1.00000
    228      -1.8847      1.00000
    229      -1.8681      1.00000
    230      -1.8589      1.00000
    231      -1.8385      1.00000
    232      -1.7963      1.00000
    233      -1.7852      1.00000
    234      -1.7683      1.00000
    235      -1.7541      1.00000
    236      -1.7383      1.00000
    237      -1.7243      1.00000
    238      -1.7201      1.00000
    239      -1.7151      1.00000
    240      -1.6954      1.00000
    241      -1.6914      1.00000
    242      -1.6845      1.00000
    243      -1.6814      1.00000
    244      -1.6724      1.00000
    245      -1.6627      1.00000
    246      -1.6583      1.00000
    247      -1.6514      1.00000
    248      -1.6464      1.00000
    249      -1.6404      1.00000
    250      -1.6323      1.00000
    251      -1.6257      1.00000
    252      -1.6175      1.00000
    253      -1.6143      1.00000
    254      -1.6025      1.00000
    255      -1.5961      1.00000
    256      -1.5939      1.00000
    257      -1.5812      1.00000
    258      -1.5755      1.00000
    259      -1.5690      1.00000
    260      -1.5618      1.00000
    261      -1.5545      1.00000
    262      -1.5505      1.00000
    263      -1.5390      1.00000
    264      -1.5334      1.00000
    265      -1.5246      1.00000
    266      -1.5166      1.00000
    267      -1.5124      1.00000
    268      -1.5094      1.00000
    269      -1.4879      1.00000
    270      -1.4822      1.00000
    271      -1.4788      1.00000
    272      -1.4593      1.00000
    273      -1.4526      1.00000
    274      -1.4472      1.00000
    275      -1.4384      1.00000
    276      -1.4273      1.00000
    277      -1.4214      1.00000
    278      -1.4089      1.00000
    279      -1.3933      1.00000
    280      -1.3890      1.00000
    281      -1.3707      1.00000
    282      -1.3600      1.00000
    283      -1.3500      1.00000
    284      -1.2820      1.00000
    285      -1.2695      1.00000
    286      -1.2614      1.00000
    287      -1.2439      1.00000
    288      -1.2301      1.00000
    289      -1.2151      1.00000
    290      -1.2015      1.00000
    291      -1.1897      1.00000
    292      -1.1816      1.00000
    293      -1.1741      1.00000
    294      -1.1537      1.00000
    295      -1.1506      1.00000
    296      -1.1259      1.00000
    297      -1.1143      1.00000
    298      -1.0972      1.00000
    299      -1.0540      1.00000
    300      -1.0249      1.00000
    301      -1.0149      1.00000
    302      -1.0083      1.00000
    303      -0.9922      1.00000
    304      -0.9817      1.00000
    305      -0.9615      1.00000
    306      -0.9447      1.00000
    307      -0.9321      1.00000
    308      -0.9056      1.00000
    309      -0.8967      1.00000
    310      -0.8900      1.00000
    311      -0.8850      1.00000
    312      -0.8807      1.00000
    313      -0.8737      1.00000
    314      -0.8704      1.00000
    315      -0.8584      1.00000
    316      -0.8520      1.00000
    317      -0.8458      1.00000
    318      -0.8307      1.00000
    319      -0.7936      1.00000
    320      -0.7814      1.00000
    321      -0.7711      1.00000
    322      -0.7341      1.00000
    323      -0.7081      1.00000
    324      -0.6956      1.00000
    325      -0.6717      1.00000
    326      -0.6632      1.00000
    327      -0.6567      1.00000
    328      -0.6526      1.00000
    329      -0.6429      1.00000
    330      -0.6380      1.00000
    331      -0.6298      1.00000
    332      -0.6190      1.00000
    333      -0.6109      1.00000
    334      -0.5629      1.00000
    335      -0.5540      1.00000
    336      -0.5422      1.00000
    337      -0.4385      1.00000
    338      -0.4310      1.00000
    339      -0.4221      1.00000
    340      -0.4022      1.18985
    341      -0.3929      0.64033
    342      -0.3496      0.42694
    343      -0.2182      0.00000
    344       0.3620      0.00000
    345       0.3957      0.00000
    346       0.4156      0.00000
    347       0.9988      0.00000
    348       1.0252      0.00000
    349       1.0396      0.00000
    350       1.0514      0.00000
    351       1.0752      0.00000
    352       1.0924      0.00000
    353       1.4215      0.00000
    354       1.4288      0.00000
    355       1.4614      0.00000
    356       1.4865      0.00000
    357       1.5245      0.00000
    358       1.5439      0.00000
    359       1.5515      0.00000
    360       1.5599      0.00000
    361       1.5901      0.00000
    362       1.5953      0.00000
    363       1.6157      0.00000
    364       1.6282      0.00000
    365       1.6630      0.00000
    366       1.6905      0.00000
    367       1.7127      0.00000
    368       2.2579      0.00000
    369       2.3252      0.00000
    370       2.3724      0.00000
    371       2.4001      0.00000
    372       2.4300      0.00000
    373       2.4648      0.00000
    374       2.8459      0.00000
    375       2.8635      0.00000
    376       2.9002      0.00000
    377       2.9553      0.00000
    378       2.9642      0.00000
    379       2.9786      0.00000
    380       3.2758      0.00000
    381       3.2968      0.00000
    382       3.3220      0.00000
    383       3.3600      0.00000
    384       3.4183      0.00000
    385       3.4664      0.00000
    386       4.2560      0.00000
    387       4.3311      0.00000
    388       4.9350      0.00000
    389       4.9630      0.00000
    390       4.9654      0.00000
    391       4.9960      0.00000
    392       5.0207      0.00000
    393       5.0275      0.00000
    394       5.6785      0.00000
    395       5.9431      0.00000
    396       5.9571      0.00000
    397       5.9947      0.00000
    398       5.9991      0.00000
    399       6.0225      0.00000
    400       6.0363      0.00000
[...]
   0.396E+01 -.891E+02 -.202E+04   -.392E+01 0.901E+02 0.202E+04   -.202E-01 -.975E+00 0.212E+01   0.177E-02 -.576E-01 0.817E+00
   -.647E+01 -.110E+02 0.205E+04   0.684E+01 0.110E+02 -.205E+04   -.682E+00 -.562E+00 -.237E+01   -.130E+00 -.153E+00 -.743E+00
   -.478E+01 -.504E+02 -.204E+04   0.488E+01 0.510E+02 0.204E+04   -.599E-02 -.582E+00 0.172E+01   -.893E-01 -.350E-01 0.965E+00
   -.215E+02 -.757E+01 0.202E+04   0.215E+02 0.767E+01 -.202E+04   0.554E+00 -.488E+00 -.237E+01   -.146E+00 0.175E-01 -.887E+00
   -.718E+01 -.474E+02 -.206E+04   0.686E+01 0.477E+02 0.206E+04   0.358E+00 -.159E+00 0.287E+01   -.305E-01 -.145E+00 0.994E+00
   -.508E+02 0.106E+02 0.740E+03   0.510E+02 -.107E+02 -.740E+03   -.740E+00 -.278E-01 0.720E+00   -.274E+00 -.730E-01 0.434E+00
   0.212E+02 -.159E+02 0.200E+04   -.214E+02 0.163E+02 -.200E+04   -.235E+00 -.110E+01 -.263E+01   0.677E-01 -.412E-01 -.783E+00
   0.124E+02 -.698E+02 -.204E+04   -.123E+02 0.707E+02 0.203E+04   -.144E+00 -.742E+00 0.313E+01   0.105E+00 -.148E+00 0.891E+00
   -.153E+02 0.426E+01 0.627E+03   0.153E+02 -.442E+01 -.627E+03   0.101E+00 -.519E+00 -.523E+00   0.471E-01 -.125E+00 0.633E+00
   -.674E+02 0.786E+01 -.673E+03   0.677E+02 -.778E+01 0.671E+03   -.290E+00 0.131E+00 0.333E+00   -.126E-01 -.213E+00 0.111E+01
   0.428E+02 -.501E+02 0.679E+03   -.430E+02 0.505E+02 -.679E+03   0.693E+00 -.274E+00 -.196E+00   0.327E+00 -.278E+00 0.574E+00
   0.577E+02 -.553E+02 -.647E+03   -.581E+02 0.557E+02 0.645E+03   0.247E+00 -.138E+00 0.706E+00   0.188E+00 -.209E+00 0.105E+01
   -.495E+01 -.354E+01 0.201E+04   0.461E+01 0.350E+01 -.200E+04   0.664E+00 0.576E+00 -.253E+01   0.752E-01 -.350E-01 -.835E+00
   0.923E+01 0.174E+02 -.202E+04   -.980E+01 -.182E+02 0.202E+04   0.439E+00 0.573E+00 0.293E+01   0.151E+00 0.164E+00 0.827E+00
   0.146E+02 -.700E+01 0.202E+04   -.144E+02 0.698E+01 -.202E+04   -.462E+00 0.691E+00 -.267E+01   0.103E-01 -.239E+00 -.796E+00
   0.992E+01 0.234E+02 -.202E+04   -.956E+01 -.242E+02 0.202E+04   -.338E+00 0.535E+00 0.225E+01   -.122E-01 0.222E+00 0.829E+00
   0.475E+02 -.241E+02 0.671E+03   -.478E+02 0.241E+02 -.672E+03   0.843E-01 -.451E+00 -.101E+00   0.203E+00 -.184E+00 0.673E+00
   -.817E+00 0.118E+02 0.204E+04   0.776E+00 -.113E+02 -.204E+04   -.796E-01 -.106E+00 -.188E+01   0.668E-02 -.366E-01 -.697E+00
   -.267E+02 -.694E+00 -.201E+04   0.268E+02 0.575E+00 0.201E+04   0.638E-01 -.164E+00 0.112E+01   -.124E+00 0.243E+00 0.985E+00
   0.177E+02 -.252E+02 0.741E+03   -.176E+02 0.256E+02 -.741E+03   0.204E+00 0.386E+00 0.345E+00   -.107E+00 -.403E-01 0.572E+00
   0.655E+02 -.831E+02 -.663E+03   -.657E+02 0.834E+02 0.662E+03   0.330E+00 -.432E+00 0.126E+00   -.121E+00 0.586E-01 0.905E+00
   -.105E+02 0.116E+02 0.205E+04   0.108E+02 -.115E+02 -.204E+04   -.415E-02 0.169E+00 -.236E+01   -.127E+00 0.145E+00 -.848E+00
   0.599E+01 0.143E+02 -.204E+04   -.585E+01 -.143E+02 0.203E+04   -.102E+00 -.155E+00 0.285E+01   -.539E-01 0.194E+00 0.101E+01
   -.536E+02 0.211E+02 0.699E+03   0.540E+02 -.209E+02 -.699E+03   0.890E-01 0.437E+00 -.152E-01   -.180E+00 0.140E+00 0.493E+00
   -.121E+02 0.165E+01 0.639E+03   0.121E+02 -.133E+01 -.639E+03   -.367E+00 0.471E+00 -.967E-01   0.943E-01 0.196E-01 0.610E+00
   -.563E+02 -.549E+01 -.734E+03   0.566E+02 0.553E+01 0.733E+03   -.337E+00 -.439E-02 0.269E+00   0.719E-01 -.309E-01 0.104E+01
   0.456E+02 -.607E+02 -.689E+03   -.460E+02 0.609E+02 0.687E+03   0.201E+00 -.150E+00 0.170E+00   0.201E+00 -.803E-01 0.104E+01
   -.928E+01 0.411E+02 0.635E+03   0.885E+01 -.414E+02 -.635E+03   -.339E-01 0.116E-01 -.309E+00   -.889E-01 0.144E+00 0.692E+00
   0.231E+02 -.142E+01 0.666E+03   -.228E+02 0.164E+01 -.666E+03   0.560E+00 -.261E+00 -.934E-01   0.167E+00 -.464E-01 0.830E+00
   0.434E+02 0.244E+02 -.686E+03   -.438E+02 -.248E+02 0.684E+03   0.250E+00 0.279E+00 0.530E+00   0.152E+00 0.136E+00 0.116E+01
   -.514E+02 0.449E+02 -.678E+03   0.517E+02 -.453E+02 0.677E+03   -.106E+00 0.116E+00 -.839E-01   -.125E+00 0.297E+00 0.101E+01
   -.450E+02 0.780E+02 -.710E+03   0.453E+02 -.785E+02 0.709E+03   -.384E+00 0.349E+00 -.974E-01   0.882E-01 0.199E+00 0.109E+01
   0.106E+02 0.307E+02 0.251E+04   -.107E+02 -.307E+02 -.251E+04   0.132E+00 0.176E+00 -.101E+01   -.854E-01 -.221E-01 -.103E+01
   0.215E+02 0.602E+02 -.251E+04   -.218E+02 -.606E+02 0.251E+04   0.200E+00 0.279E+00 0.103E+01   0.752E-01 0.130E+00 0.110E+01
   -.112E+02 0.316E+01 0.255E+04   0.115E+02 -.329E+01 -.255E+04   -.524E+00 0.104E+00 -.128E+01   -.846E-01 0.581E-02 -.796E+00
   -.325E+02 -.258E+01 -.253E+04   0.329E+02 0.274E+01 0.253E+04   -.218E+00 -.769E-02 -.366E+00   -.105E+00 -.159E+00 0.123E+01
   0.138E+02 -.320E+02 0.250E+04   -.139E+02 0.321E+02 -.249E+04   0.220E+00 -.189E+00 -.158E+01   0.782E-02 0.559E-01 -.985E+00
   0.209E+02 -.365E+02 -.249E+04   -.212E+02 0.370E+02 0.249E+04   0.318E+00 -.202E+00 0.928E+00   -.467E-01 -.364E+00 0.113E+01
   0.134E+02 -.217E+02 0.253E+04   -.138E+02 0.218E+02 -.252E+04   -.188E-01 0.206E-01 -.174E+01   0.440E+00 -.993E-01 -.743E+00
   0.204E+02 -.157E+01 -.252E+04   -.208E+02 0.166E+01 0.252E+04   0.319E+00 0.112E+00 0.832E+00   0.454E-01 -.231E+00 0.105E+01
   -.197E+02 0.105E+03 -.795E+03   0.197E+02 -.105E+03 0.793E+03   0.133E+00 0.304E+00 0.336E+00   -.137E+00 0.107E+00 0.110E+01
   0.279E+02 -.434E+02 0.922E+03   -.281E+02 0.436E+02 -.922E+03   0.986E-01 -.397E+00 -.246E+00   -.110E+00 -.222E+00 0.627E+00
   -.889E+02 -.829E+01 -.765E+03   0.893E+02 0.850E+01 0.763E+03   -.204E+00 -.480E-01 0.161E+00   -.161E+00 -.155E+00 0.110E+01
   0.958E+02 -.733E+02 -.769E+03   -.960E+02 0.737E+02 0.767E+03   0.224E+00 -.250E+00 0.399E+00   -.563E-01 -.131E+00 0.104E+01
   -.701E+02 -.129E+02 -.832E+03   0.706E+02 0.130E+02 0.830E+03   -.303E+00 -.229E+00 0.348E+00   -.222E+00 0.454E-01 0.118E+01
   0.304E+02 0.469E+01 0.889E+03   -.307E+02 -.500E+01 -.889E+03   0.945E-01 0.259E-01 -.177E+00   0.771E-01 0.272E+00 0.746E+00
   0.599E+02 -.228E+02 -.816E+03   -.600E+02 0.228E+02 0.815E+03   0.171E+00 -.193E+00 0.770E-02   -.164E+00 0.198E+00 0.129E+01
   -.503E+02 0.599E+02 0.888E+03   0.505E+02 -.606E+02 -.889E+03   -.451E+00 0.263E+00 -.394E-01   -.193E+00 0.485E+00 0.578E+00
 -----------------------------------------------------------------------------------------------
   -.761E+00 -.545E-01 -.281E+02   0.711E-13 0.924E-12 -.136E-11   0.104E+01 0.127E+00 -.232E+01   -.289E+00 -.642E-01 0.304E+02
 
 
 POSITION                                       TOTAL-FORCE (eV/Angst)
 -----------------------------------------------------------------------------------
     -5.03208      8.74992      2.05921        -0.189082     -0.124904     -0.246928
     -5.03974      8.74788      8.31994         0.031828      0.004981     -0.009367
      0.00574      8.72607      2.04467        -0.333406      0.407758     -0.063849
      5.05367      0.03871      8.29252         0.008521      0.014231     -0.023549
      2.47665      8.72592      2.00820         0.316065      0.160186      0.114328
      2.55801      8.75333      8.21321         0.026082      0.004914     -0.050404
      1.23891      2.21748      2.05881         0.448909     -0.146099     -0.618383
      1.33480      2.15879      8.29923        -0.011303     -0.026786     -0.010495
      0.08074      1.41419      4.05320        -0.979438      0.337513      0.554453
      2.49330      1.45451      4.14829         0.685610      0.114798     -0.424192
      1.20657      0.75352      6.27261        -0.007802      0.006906     -0.010315
      5.06166      1.44930      4.13498        -0.327050      0.090677     -0.569827
      3.75519      0.73647      6.24559         0.000545      0.010447      0.027064
      7.51557      1.45812      4.11001         0.632791     -0.121685     -0.169203
      6.27747      0.70011      6.20036        -0.045287      0.010430      0.047322
     -2.55062      4.47399      2.00996         0.230450     -0.749883      0.115539
     -2.49550      4.33035      8.23378         0.022447     -0.029008     -0.022781
      0.03014      4.42905      2.07021        -0.439624     -0.632412     -0.668858
      0.05202      4.33690      8.19193        -0.000533     -0.033144     -0.026575
      2.50847      4.40516      2.07435         0.408555     -0.366592     -0.860473
      2.54243      4.38607      8.35012         0.009273     -0.015708     -0.037768
      1.32139      3.64145      4.02772        -0.854052     -0.213325      1.265734
      5.08382      4.44890      2.04816        -0.381440     -0.737083     -0.564261
      5.10301      4.36246      8.38115         0.031110     -0.030895      0.001278
      3.79377      3.69800      4.13070         0.115089     -0.803948      0.171610
      2.47594      2.98306      6.24726        -0.007353     -0.004558     -0.004091
      6.25293      3.64956      4.08305         0.826386     -0.136888      0.265105
      5.06386      2.91883      6.25151        -0.006594      0.014798      0.004896
      6.25194      6.54167      2.03547         0.402190      0.498619     -0.473435
      6.32672      6.53602      8.36148         0.019198     -0.022108      0.016010
     -1.23133      6.52951      2.06362        -0.281485      0.431425     -0.644225
     -1.23783      6.53244      8.25020         0.012204     -0.021592     -0.039577
     -2.52172      5.87475      4.08746         0.003778     -0.588179      0.268995
      1.28426      6.55944      2.07409        -0.114343      0.404684     -0.644582
      1.23396      6.58908      8.16518         0.019920     -0.039830     -0.010468
     -0.00626      5.79145      4.04458         0.210011      0.741883      1.006169
     -1.24593      5.05075      6.12428        -0.021846     -0.007246      0.032801
      3.77628      6.55571      2.00000         0.093574      0.395900     -0.249647
      3.81325      6.58821      8.37062        -0.009783      0.005882     -0.046733
      2.52387      5.78801      4.07310         0.253524      0.792555      0.604098
      5.06734      5.79704      4.10517        -0.336119      0.815606      0.566943
      3.75204      5.14804      6.28529        -0.012666      0.004000      0.010982
      6.31585      5.10436      6.22762         0.006489      0.012133      0.019703
     -3.76296      8.02446      4.11956        -0.551320     -0.181838      0.095295
     -1.33707      8.05044      4.10307         1.023199     -0.081691      0.213169
     -2.56467      7.28414      6.23641        -0.025487     -0.036019      0.022045
      2.47666      7.30503      6.10206         0.002308      0.030514      0.008519
      4.99209      7.33507      6.21707        -0.018712      0.022774     -0.011283
     -2.52690      8.74056      2.03303        -0.002690      0.147968      0.190399
     -2.48994      8.74362      8.27896        -0.010397      0.008420     -0.022598
     -1.24953      2.18697      2.05404        -0.320861     -0.018164      0.290091
     -1.21430      2.17610      8.11282         0.024025     -0.006429     -0.035267
      3.77687      2.20348      2.02824         0.094868     -0.030186      0.571238
      3.83080      2.21003      8.25647         0.010024     -0.018737     -0.042290
      6.31052      2.19548      2.03585        -0.019252      0.036898      0.135977
      6.36245      2.17701      8.20754         0.045221     -0.030914     -0.001219
      8.83783      0.74036      6.13680        -0.012258      0.000691     -0.044372
     -1.27338      3.65234      4.08854        -0.130496     -0.381961     -0.150589
      0.00875      2.90202      6.10119         0.045185      0.005769     -0.010038
      7.57855      2.90576      6.14133        -0.021500      0.030089     -0.000174
      1.24179      5.10341      6.14801        -0.017779     -0.006864      0.009314
      1.25660      8.01495      4.09193        -0.103743     -0.015945      0.084255
     -0.03507      7.26305      6.11608        -0.046600      0.013781     -0.003570
      3.80919      8.00883      4.09175        -0.419078      0.083390      0.098055
 -----------------------------------------------------------------------------------
    total drift:                               -0.008504      0.007865     -0.078033


--------------------------------------------------------------------------------------------------------



  FREE ENERGIE OF THE ION-ELECTRON SYSTEM (eV)
  ---------------------------------------------------
  free  energy   TOTEN  =      -455.43565294 eV

  energy  without entropy=     -455.43565294  energy(sigma->0) =     -455.43565294
 


--------------------------------------------------------------------------------------------------------


    POTLOK:  cpu time    0.2980: real time    0.3020


--------------------------------------------------------------------------------------------------------


     LOOP+:  cpu time 1097.4962: real time 1104.0256
    4ORBIT:  cpu time    0.0000: real time    0.0000
 


 total charge     
 
# of ion       s       p       d       tot
------------------------------------------
    1        0.478   0.397   6.179   7.054
    2        0.475   0.384   6.174   7.033
    3        0.473   0.388   6.162   7.023
    4        0.467   0.381   6.151   6.999
    5        0.468   0.381   6.158   7.008
    6        0.474   0.396   6.156   7.026
    7        0.482   0.402   6.196   7.080
    8        0.470   0.385   6.172   7.027
    9        0.481   0.506   6.224   7.211
   10        0.480   0.510   6.232   7.221
   11        0.478   0.509   6.210   7.198
   12        0.475   0.499   6.217   7.190
   13        0.471   0.499   6.209   7.179
   14        0.463   0.477   6.178   7.119
   15        0.475   0.503   6.215   7.193
   16        0.475   0.388   6.182   7.045
   17        0.473   0.396   6.164   7.033
   18        0.492   0.425   6.216   7.133
   19        0.474   0.400   6.169   7.042
   20        0.497   0.429   6.220   7.147
   21        0.473   0.381   6.181   7.035
   22        0.496   0.537   6.253   7.286
   23        0.490   0.416   6.207   7.112
   24        0.470   0.382   6.164   7.017
   25        0.486   0.519   6.239   7.244
   26        0.472   0.504   6.205   7.181
   27        0.480   0.509   6.222   7.212
   28        0.470   0.498   6.209   7.176
   29        0.490   0.425   6.207   7.121
   30        0.469   0.388   6.169   7.026
   31        0.491   0.422   6.208   7.122
   32        0.469   0.388   6.179   7.036
   33        0.486   0.526   6.239   7.250
   34        0.496   0.443   6.223   7.162
   35        0.474   0.407   6.175   7.057
   36        0.488   0.526   6.240   7.254
   37        0.474   0.501   6.195   7.171
   38        0.483   0.412   6.200   7.095
   39        0.474   0.389   6.179   7.042
   40        0.488   0.526   6.250   7.264
   41        0.485   0.525   6.235   7.245
   42        0.473   0.502   6.204   7.179
   43        0.472   0.502   6.202   7.177
   44        0.485   0.522   6.244   7.251
   45        0.480   0.509   6.235   7.224
   46        0.473   0.499   6.205   7.177
   47        0.475   0.500   6.215   7.189
   48        0.471   0.498   6.205   7.173
   49        0.502   0.383   8.321   9.206
   50        0.514   0.403   8.311   9.227
   51        0.496   0.369   8.318   9.183
   52        0.506   0.406   8.311   9.223
   53        0.487   0.356   8.323   9.167
   54        0.513   0.406   8.321   9.240
   55        0.501   0.370   8.316   9.188
   56        0.511   0.400   8.317   9.229
   57        0.508   0.510   8.317   9.336
   58        0.502   0.498   8.322   9.322
   59        0.507   0.507   8.323   9.337
   60        0.505   0.502   8.323   9.330
   61        0.517   0.529   8.322   9.367
   62        0.515   0.528   8.315   9.358
   63        0.507   0.512   8.306   9.326
   64        0.505   0.507   8.309   9.321
--------------------------------------------------
tot         31.050  29.000 430.743 490.794
 


 magnetization (x)
 
# of ion       s       p       d       tot
------------------------------------------
    1       -0.002  -0.010   2.737   2.725
    2       -0.002  -0.008   2.743   2.733
    3        0.001  -0.008   2.783   2.777
    4        0.000  -0.014   2.801   2.787
    5        0.002  -0.008   2.786   2.780
    6       -0.003  -0.016   2.768   2.749
    7       -0.002  -0.010   2.700   2.688
    8        0.002  -0.010   2.740   2.732
    9       -0.011  -0.031   2.600   2.558
   10       -0.015  -0.038   2.576   2.523
   11       -0.014  -0.041   2.615   2.560
   12       -0.013  -0.037   2.594   2.543
   13       -0.013  -0.039   2.606   2.554
   14       -0.003  -0.018   2.711   2.690
   15       -0.011  -0.035   2.599   2.553
   16       -0.001  -0.006   2.750   2.743
   17       -0.004  -0.022   2.744   2.718
   18       -0.006  -0.016   2.660   2.637
   19       -0.004  -0.022   2.729   2.704
   20       -0.010  -0.016   2.658   2.632
   21       -0.005  -0.012   2.718   2.701
   22       -0.017  -0.044   2.543   2.482
   23       -0.006  -0.014   2.693   2.674
   24       -0.003  -0.015   2.760   2.741
   25       -0.018  -0.044   2.570   2.507
   26       -0.012  -0.042   2.646   2.591
   27       -0.013  -0.038   2.598   2.547
   28       -0.010  -0.036   2.625   2.580
   29       -0.009  -0.026   2.672   2.638
   30       -0.004  -0.023   2.745   2.718
   31       -0.010  -0.020   2.665   2.634
   32       -0.005  -0.023   2.709   2.681
   33       -0.019  -0.052   2.547   2.476
   34       -0.010  -0.032   2.615   2.573
   35       -0.008  -0.030   2.709   2.672
   36       -0.014  -0.039   2.573   2.521
   37       -0.009  -0.036   2.665   2.620
   38       -0.007  -0.023   2.675   2.644
   39       -0.008  -0.026   2.714   2.680
   40       -0.016  -0.042   2.548   2.490
   41       -0.017  -0.050   2.596   2.529
   42       -0.018  -0.053   2.627   2.555
   43       -0.018  -0.052   2.636   2.565
   44       -0.016  -0.046   2.544   2.483
   45       -0.013  -0.039   2.569   2.516
   46       -0.014  -0.041   2.632   2.577
   47       -0.010  -0.037   2.626   2.580
   48       -0.016  -0.048   2.632   2.569
   49       -0.032  -0.032   0.726   0.662
   50       -0.034  -0.039   0.725   0.652
   51       -0.029  -0.025   0.705   0.650
   52       -0.026  -0.036   0.710   0.647
   53       -0.027  -0.022   0.712   0.662
   54       -0.030  -0.037   0.722   0.656
   55       -0.028  -0.022   0.723   0.672
   56       -0.027  -0.032   0.714   0.655
   57       -0.030  -0.057   0.734   0.648
   58       -0.030  -0.053   0.711   0.627
   59       -0.026  -0.048   0.746   0.671
   60       -0.026  -0.046   0.713   0.641
   61       -0.033  -0.069   0.740   0.637
   62       -0.034  -0.071   0.757   0.652
   63       -0.032  -0.067   0.772   0.673
   64       -0.032  -0.065   0.770   0.673
--------------------------------------------------
tot         -0.911  -2.114 139.433 136.408
 
 BZINTS: Fermi energy: -0.246887;544.000000 electrons
         Band energy:***********;  BLOECHL correction: -0.141846

 total amount of memory used by VASP MPI-rank0   256005. kBytes
=======================================================================

   base      :      30000. kBytes
   nonlr-proj:      13220. kBytes
   fftplans  :       6403. kBytes
   grid      :      16455. kBytes
   one-center:         93. kBytes
   wavefun   :     189834. kBytes
 
  
  
 General timing and accounting informations for this job:
 ========================================================
  
                  Total CPU time used (sec):     1211.118
                            User time (sec):     1192.749
                          System time (sec):       18.369
                         Elapsed time (sec):     1226.355
  
                   Maximum memory used (kb):      357996.
                   Average memory used (kb):           0.
  
                          Minor page faults:        35472
                          Major page faults:            0
                 Voluntary context switches:         8115
