SQS-NiFe                                
           1
    10.111630    0.000000    0.000000
    -5.055815    8.756928    0.000000
     0.000000    0.000000   21.266428
   Fe   Ni
  48  16
Direct configuration=     1
   0.00194700  0.99920000  0.09682937
   0.00107326  0.99896689  0.39122409
   0.49880600  0.99647600  0.09614542
   0.50199854  0.00442059  0.38993484
   0.74316000  0.99645900  0.09443074
   0.75277095  0.99958869  0.38620520
   0.24913600  0.25322600  0.09681044
   0.25526753  0.24652320  0.39025038
   0.08873200  0.16149400  0.19059152
   0.32962600  0.16609800  0.19506268
   0.16234937  0.08604897  0.29495344
   0.58333000  0.16550300  0.19443696
   0.41342372  0.08410160  0.29368324
   0.82651500  0.16651000  0.19326268
   0.66079202  0.07994943  0.29155648
   0.00320800  0.51090900  0.09451343
   0.00045802  0.49450577  0.38717282
   0.25586900  0.50577700  0.09734648
   0.25277163  0.49525341  0.38520482
   0.49960200  0.50304900  0.09754098
   0.50187053  0.50086878  0.39264342
   0.33859900  0.41583700  0.18939337
   0.75679100  0.50804300  0.09630935
   0.75375402  0.49817260  0.39410240
   0.58633600  0.42229400  0.19423576
   0.41518607  0.34065103  0.29376141
   0.82677100  0.41676200  0.19199494
   0.66745403  0.33331620  0.29396130
   0.99180600  0.74702800  0.09571304
   0.99887881  0.74638264  0.39317768
   0.25104600  0.74563900  0.09703639
   0.25057053  0.74597437  0.38794468
   0.08604600  0.67086900  0.19220225
   0.50153700  0.74905700  0.09752875
   0.49825464  0.75244237  0.38394690
   0.33005900  0.66135600  0.19018621
   0.16516765  0.57677132  0.28797888
   0.74777500  0.74863100  0.09404494
   0.75328672  0.75234299  0.39360727
   0.58008200  0.66096300  0.19152733
   0.83213700  0.66199500  0.19303528
   0.66500274  0.58788240  0.29554969
   0.91605936  0.58289400  0.29283791
   0.08603600  0.91635500  0.19371195
   0.32743000  0.91932200  0.19293658
   0.16227157  0.83181414  0.29325135
   0.66203252  0.83420045  0.28693415
   0.91251303  0.83763061  0.29234221
   0.24916500  0.99813100  0.09559832
   0.25299521  0.99848081  0.38929704
   0.00129700  0.24974200  0.09658595
   0.00416083  0.24850076  0.38148500
   0.49933100  0.25162700  0.09537266
   0.50503780  0.25237461  0.38823976
   0.74944200  0.25071300  0.09573080
   0.75352333  0.24860411  0.38593886
   0.91629876  0.08454538  0.28856766
   0.08260800  0.41708000  0.19225321
   0.16656385  0.33139684  0.28689316
   0.91540093  0.33182419  0.28878065
   0.41420109  0.58278596  0.28909478
   0.58190700  0.91526900  0.19241277
   0.41123479  0.82940556  0.28759341
   0.83399900  0.91457100  0.19240403
