       N       E                     dE             d eps       ncg     rms          rms(c)
DAV:   1    -0.538345400391E+03   -0.53835E+03   -0.36285E-01  9693   0.375E+00    0.141E+00
RMM:   2    -0.538944273381E+03   -0.59887E+00   -0.38545E-01  7388   0.203E+00    0.492E+00
RMM:   3    -0.538936815822E+03    0.74576E-02   -0.17010E-01  7682   0.102E+00    0.405E+00
RMM:   4    -0.538866704893E+03    0.70111E-01   -0.11233E-01  7525   0.746E-01    0.248E+00
RMM:   5    -0.538833258983E+03    0.33446E-01   -0.27933E-02  7281   0.481E-01    0.747E-01
RMM:   6    -0.538832972356E+03    0.28663E-03   -0.11687E-02  8275   0.237E-01    0.533E-01
RMM:   7    -0.538835632609E+03   -0.26603E-02   -0.70440E-03  8986   0.169E-01    0.547E-01
RMM:   8    -0.538835961794E+03   -0.32919E-03   -0.39408E-03  7940   0.157E-01    0.380E-01
RMM:   9    -0.538837791739E+03   -0.18299E-02   -0.37528E-03  8252   0.140E-01    0.454E-01
RMM:  10    -0.538837821114E+03   -0.29375E-04   -0.17997E-03  7657   0.114E-01    0.151E-01
RMM:  11    -0.538839041107E+03   -0.12200E-02   -0.14242E-03  8445   0.823E-02    0.264E-01
RMM:  12    -0.538839913306E+03   -0.87220E-03   -0.78964E-04  8071   0.671E-02    0.161E-01
RMM:  13    -0.538840355264E+03   -0.44196E-03   -0.44777E-04  8544   0.491E-02    0.131E-01
RMM:  14    -0.538841186231E+03   -0.83097E-03   -0.30164E-04  8756   0.365E-02    0.100E-01
RMM:  15    -0.538841474518E+03   -0.28829E-03   -0.14966E-04  8279   0.275E-02    0.656E-02
RMM:  16    -0.538842150058E+03   -0.67554E-03   -0.95121E-05  9058   0.184E-02    0.695E-02
RMM:  17    -0.538842462006E+03   -0.31195E-03   -0.53795E-05  8144   0.162E-02    0.563E-02
RMM:  18    -0.538843244423E+03   -0.78242E-03   -0.54695E-05  8610   0.143E-02    0.618E-02
RMM:  19    -0.538843662622E+03   -0.41820E-03   -0.34889E-05  7951   0.132E-02    0.467E-02
RMM:  20    -0.538844333711E+03   -0.67109E-03   -0.49457E-05  8338   0.139E-02    0.564E-02
RMM:  21    -0.538844948575E+03   -0.61486E-03   -0.43894E-05  7938   0.130E-02    0.366E-02
RMM:  22    -0.538845478863E+03   -0.53029E-03   -0.54330E-05  8266   0.142E-02    0.456E-02
RMM:  23    -0.538845973670E+03   -0.49481E-03   -0.54069E-05  7969   0.130E-02    0.250E-02
RMM:  24    -0.538846215094E+03   -0.24142E-03   -0.42238E-05  8458   0.116E-02    0.324E-02
RMM:  25    -0.538846410377E+03   -0.19528E-03   -0.32038E-05  8224   0.920E-03    0.138E-02
RMM:  26    -0.538846491297E+03   -0.80920E-04   -0.20464E-05  8829   0.745E-03    0.195E-02
RMM:  27    -0.538846537999E+03   -0.46702E-04   -0.11510E-05  7613   0.574E-03    0.812E-03
RMM:  28    -0.538846550271E+03   -0.12271E-04   -0.84151E-06  7208   0.459E-03    0.106E-02
RMM:  29    -0.538846533124E+03    0.17146E-04   -0.49981E-06  6128   0.397E-03    0.505E-03
RMM:  30    -0.538846525185E+03    0.79388E-05   -0.15665E-06  4609   0.279E-03    0.581E-03
RMM:  31    -0.538846517570E+03    0.76156E-05   -0.98222E-07  4357   0.258E-03    0.325E-03
RMM:  32    -0.538846515441E+03    0.21284E-05   -0.52014E-07  4194   0.151E-03    0.314E-03
RMM:  33    -0.538846515170E+03    0.27117E-06   -0.34335E-07  4130   0.160E-03
   1 F= -.55220841E+03 E0= -.55220841E+03  d E =0.000000E+00  mag=   137.7118
