 vasp.5.4.4.18Apr17-6-g9f103f2a35 (build Dec 15 2018 21:27:11) complex          
  
 executed on             LinuxIFC date 2022.03.06  07:03:07
 running on   72 total cores
 distrk:  each k-point on   72 cores,    1 groups
 distr:  one band on NCORES_PER_BAND=  24 cores,    3 groups


--------------------------------------------------------------------------------------------------------


 INCAR:
 POTCAR:    PAW_PBE Fe 06Sep2000                  
 POTCAR:    PAW_PBE O 08Apr2002                   

 ----------------------------------------------------------------------------- 
|                                                                             |
|           W    W    AA    RRRRR   N    N  II  N    N   GGGG   !!!           |
|           W    W   A  A   R    R  NN   N  II  NN   N  G    G  !!!           |
|           W    W  A    A  R    R  N N  N  II  N N  N  G       !!!           |
|           W WW W  AAAAAA  RRRRR   N  N N  II  N  N N  G  GGG   !            |
|           WW  WW  A    A  R   R   N   NN  II  N   NN  G    G                |
|           W    W  A    A  R    R  N    N  II  N    N   GGGG   !!!           |
|                                                                             |
|      For optimal performance we recommend to set                            |
|        NCORE= 4 - approx SQRT( number of cores)                             |
|      NCORE specifies how many cores store one orbital (NPAR=cpu/NCORE).     |
|      This setting can  greatly improve the performance of VASP for DFT.     |
|      The default,   NCORE=1            might be grossly inefficient         |
|      on modern multi-core architectures or massively parallel machines.     |
|      Do your own testing !!!!                                               |
|      Unfortunately you need to use the default for GW and RPA calculations. |
|      (for HF NCORE is supported but not extensively tested yet)             |
|                                                                             |
 ----------------------------------------------------------------------------- 

 POTCAR:    PAW_PBE Fe 06Sep2000                  
   VRHFIN =Fe:  d7 s1                                                           
   LEXCH  = PE                                                                  
   EATOM  =   594.3153 eV,   43.6809 Ry                                         
                                                                                
   TITEL  = PAW_PBE Fe 06Sep2000                                                
   LULTRA =        F    use ultrasoft PP ?                                      
   IUNSCR =        1    unscreen: 0-lin 1-nonlin 2-no                           
   RPACOR =    2.000    partial core radius                                     
   POMASS =   55.847; ZVAL   =    8.000    mass and valenz                      
   RCORE  =    2.300    outmost cutoff radius                                   
   RWIGS  =    2.460; RWIGS  =    1.302    wigner-seitz radius (au A)           
   ENMAX  =  267.882; ENMIN  =  200.911 eV                                      
   RCLOC  =    1.701    cutoff for local pot                                    
   LCOR   =        T    correct aug charges                                     
   LPAW   =        T    paw PP                                                  
   EAUG   =  511.368                                                            
   DEXC   =    0.000                                                            
   RMAX   =    2.356    core radius for proj-oper                               
   RAUG   =    1.300    factor for augmentation sphere                          
   RDEP   =    2.442    radius for radial grids                                 
   RDEPT  =    1.890    core radius for aug-charge                              
                                                                                
   Atomic configuration                                                         
    9 entries                                                                   
     n  l   j            E        occ.                                          
     1  0  0.50     -6993.8440   2.0000                                         
     2  0  0.50      -814.6047   2.0000                                         
     2  1  1.50      -693.3689   6.0000                                         
     3  0  0.50       -89.4732   2.0000                                         
     3  1  1.50       -55.6373   6.0000                                         
     3  2  2.50        -3.8151   7.0000                                         
     4  0  0.50        -4.2551   1.0000                                         
     4  1  1.50        -3.4015   0.0000                                         
     4  3  2.50        -1.3606   0.0000                                         
   Description                                                                  
     l       E           TYP  RCUT    TYP  RCUT                                 
     2     -3.8151135     23  2.300                                             
     2     -5.1756961     23  2.300                                             
     0     -4.2550963     23  2.300                                             
     0      7.2035603     23  2.300                                             
     1     -2.7211652     23  2.300                                             
     1     18.4316424     23  2.300                                             
  local pseudopotential read in
  partial core-charges read in
  partial kinetic energy density read in
  atomic valenz-charges read in
  non local Contribution for L=           2  read in
    real space projection operators read in
  non local Contribution for L=           2  read in
    real space projection operators read in
  non local Contribution for L=           0  read in
    real space projection operators read in
  non local Contribution for L=           0  read in
    real space projection operators read in
  non local Contribution for L=           1  read in
    real space projection operators read in
  non local Contribution for L=           1  read in
    real space projection operators read in
    PAW grid and wavefunctions read in
 
   number of l-projection  operators is LMAX  =           6
   number of lm-projection operators is LMMAX =          18
 
 POTCAR:    PAW_PBE O 08Apr2002                   
   VRHFIN =O: s2p4                                                              
   LEXCH  = PE                                                                  
   EATOM  =   432.3788 eV,   31.7789 Ry                                         
                                                                                
   TITEL  = PAW_PBE O 08Apr2002                                                 
   LULTRA =        F    use ultrasoft PP ?                                      
   IUNSCR =        1    unscreen: 0-lin 1-nonlin 2-no                           
   RPACOR =    1.200    partial core radius                                     
   POMASS =   16.000; ZVAL   =    6.000    mass and valenz                      
   RCORE  =    1.520    outmost cutoff radius                                   
   RWIGS  =    1.550; RWIGS  =    0.820    wigner-seitz radius (au A)           
   ENMAX  =  400.000; ENMIN  =  300.000 eV                                      
   ICORE  =        2    local potential                                         
   LCOR   =        T    correct aug charges                                     
   LPAW   =        T    paw PP                                                  
   EAUG   =  605.392                                                            
   DEXC   =    0.000                                                            
   RMAX   =    1.553    core radius for proj-oper                               
   RAUG   =    1.300    factor for augmentation sphere                          
   RDEP   =    1.550    radius for radial grids                                 
   RDEPT  =    1.329    core radius for aug-charge                              
                                                                                
   Atomic configuration                                                         
    4 entries                                                                   
     n  l   j            E        occ.                                          
     1  0  0.50      -514.6923   2.0000                                         
     2  0  0.50       -23.9615   2.0000                                         
     2  1  0.50        -9.0305   4.0000                                         
     3  2  1.50        -9.5241   0.0000                                         
   Description                                                                  
     l       E           TYP  RCUT    TYP  RCUT                                 
     0    -23.9615318     23  1.200                                             
     0     -9.5240782     23  1.200                                             
     1     -9.0304911     23  1.520                                             
     1      8.1634956     23  1.520                                             
     2     -9.5240782      7  1.500                                             
  local pseudopotential read in
  partial core-charges read in
  partial kinetic energy density read in
  kinetic energy density of atom read in
  atomic valenz-charges read in
  non local Contribution for L=           0  read in
    real space projection operators read in
  non local Contribution for L=           0  read in
    real space projection operators read in
  non local Contribution for L=           1  read in
    real space projection operators read in
  non local Contribution for L=           1  read in
    real space projection operators read in
    PAW grid and wavefunctions read in
 
   number of l-projection  operators is LMAX  =           4
   number of lm-projection operators is LMMAX =           8
 
 Optimization of the real space projectors (new method)

 maximal supplied QI-value         = 16.25
 optimisation between [QCUT,QGAM] = [ 11.54, 23.24] = [ 37.28,151.24] Ry 
 Optimized for a Real-space Cutoff    1.53 Angstroem

   l    n(q)    QCUT    max X(q) W(low)/X(q) W(high)/X(q)  e(spline) 
   2     10    11.539    80.901    0.11E-03    0.14E-03    0.21E-06
   2     10    11.539    75.754    0.11E-03    0.14E-03    0.22E-06
   0     11    11.539    58.752    0.52E-04    0.18E-04    0.33E-06
   0     11    11.539    30.679    0.44E-04    0.16E-04    0.30E-06
   1     10    11.539    17.977    0.53E-04    0.29E-04    0.13E-06
   1     10    11.539    13.559    0.44E-04    0.25E-04    0.11E-06
 Optimization of the real space projectors (new method)

 maximal supplied QI-value         = 24.76
 optimisation between [QCUT,QGAM] = [ 11.64, 23.27] = [ 37.91,151.63] Ry 
 Optimized for a Real-space Cutoff    1.14 Angstroem

   l    n(q)    QCUT    max X(q) W(low)/X(q) W(high)/X(q)  e(spline) 
   0      8    11.635    20.381    0.10E-03    0.33E-03    0.24E-06
   0      8    11.635    15.268    0.11E-03    0.35E-03    0.26E-06
   1      7    11.635     5.964    0.24E-03    0.31E-03    0.30E-06
   1      7    11.635     5.382    0.22E-03    0.25E-03    0.26E-06
  PAW_PBE Fe 06Sep2000                  :
 energy of atom  1       EATOM= -594.3153
 kinetic energy error for atom=    0.0026 (will be added to EATOM!!)
  PAW_PBE O 08Apr2002                   :
 energy of atom  2       EATOM= -432.3788
 kinetic energy error for atom=    0.0208 (will be added to EATOM!!)
 
 
 POSCAR: POSCAR                                  
  positions in direct lattice
  velocities in cartesian coordinates
 exchange correlation table for  LEXCH =        8
   RHO(1)=    0.500       N(1)  =     2000
   RHO(2)=  100.500       N(2)  =     4000

 VTST: version 3.2, (02/03/18)

 CHAIN: initializing optimizer
 
 OPT: Using VASP Dynamics algorithm
 CHAIN: Read ICHAIN            0
 
 POSCAR: POSCAR                                  
  positions in direct lattice
  velocities in cartesian coordinates
 


--------------------------------------------------------------------------------------------------------


 ion  position               nearest neighbor table
   1  0.087  0.163  0.095-   5 2.48  13 2.48  17 2.48  49 2.48  31 2.48   3 2.48  29 2.87  53 2.87
                            15 2.87  19 2.87
   2  0.089  0.162  0.285-  32 2.38   4 2.40   3 2.43  31 2.45  18 2.48  14 2.48  50 2.49   6 2.49
                            54 2.82  19 2.83  16 2.83  15 2.84  20 2.84  30 2.88
   3  0.212  0.038  0.191-  54 2.39   2 2.43  15 2.48   7 2.48  51 2.48  19 2.48  53 2.48   1 2.48
                            50 2.83   6 2.85  31 2.87  55 2.87  49 2.87   5 2.87
   4  0.214  0.034  0.376-  54 2.39   2 2.40  52 2.42  16 2.44  20 2.52   8 2.53  56 2.75  50 2.77
                             6 2.82  32 2.85
   5  0.337  0.163  0.095-   1 2.48   9 2.48  21 2.48  53 2.48   7 2.48  19 2.48  17 2.87  57 2.87
                             3 2.87  23 2.87
   6  0.339  0.164  0.285-   7 2.44   8 2.44  19 2.45  20 2.47  10 2.48  22 2.49  54 2.49   2 2.49
                            23 2.81   4 2.82   3 2.85  58 2.86  18 2.87  24 2.90
   7  0.462  0.038  0.191-   6 2.44  58 2.47  11 2.48   3 2.48  55 2.48  23 2.48  57 2.48   5 2.48
                            54 2.81  10 2.86  19 2.87  59 2.87  53 2.87   9 2.87
   8  0.465  0.045  0.380-  65 1.86  12 2.44   6 2.44  58 2.46  56 2.47  24 2.51   4 2.53  10 2.78
                            20 2.84  60 2.93  54 2.94
   9  0.587  0.163  0.095-   5 2.48  13 2.48  25 2.48  57 2.48  11 2.48  23 2.48  21 2.87  61 2.87
                             7 2.87  27 2.87
  10  0.590  0.161  0.286-  12 2.44  11 2.45  23 2.47  26 2.48   6 2.48  14 2.48  58 2.49  24 2.51
                             8 2.78  27 2.84  62 2.85   7 2.86  28 2.86  22 2.92
  11  0.712  0.038  0.191-  62 2.43  10 2.45  15 2.48   7 2.48  59 2.48  27 2.48  61 2.48   9 2.48
                            14 2.83  58 2.87  23 2.87  63 2.87  57 2.87  13 2.87
  12  0.716  0.027  0.378-  66 1.87  62 2.39  60 2.41   8 2.44  10 2.44  16 2.53  28 2.56  58 2.76
                            64 2.80  14 2.87  24 3.03
  13  0.837  0.163  0.095-   1 2.48   9 2.48  29 2.48  61 2.48  15 2.48  27 2.48  49 2.87  25 2.87
                            11 2.87  31 2.87
  14  0.839  0.161  0.285-  15 2.42  27 2.45  28 2.46  16 2.47  30 2.48  10 2.48   2 2.48  62 2.48
                            32 2.81  31 2.82  11 2.83  50 2.86  12 2.87  26 2.89
  15  0.962  0.038  0.191-  14 2.42  50 2.46   3 2.48  11 2.48  31 2.48  63 2.48  13 2.48  49 2.48
                            62 2.83   2 2.84  27 2.87  51 2.87   1 2.87  61 2.87
  16  0.969  0.033  0.379-  66 1.85  50 2.41   4 2.44  64 2.45  14 2.47  32 2.49  12 2.53   2 2.83
                            62 2.86  28 2.87  52 2.88
  17  0.087  0.413  0.095-  21 2.48  29 2.48   1 2.48  33 2.48  19 2.48  47 2.48  45 2.87   5 2.87
                            31 2.87  35 2.87
  18  0.087  0.412  0.285-  48 2.44  19 2.45  47 2.45  20 2.45  34 2.48   2 2.48  22 2.48  30 2.49
                            36 2.73  32 2.77  31 2.83  35 2.85  46 2.87   6 2.87
  19  0.212  0.288  0.191-   6 2.45  18 2.45  23 2.48  31 2.48   3 2.48  35 2.48   5 2.48  17 2.48
                             2 2.83  22 2.84   7 2.87  47 2.87  21 2.87   1 2.87
  20  0.212  0.288  0.380-  65 1.86  36 2.43  32 2.44  18 2.45   6 2.47  24 2.51   4 2.52   8 2.84
                             2 2.84  22 2.85  48 2.85
  21  0.337  0.413  0.095-  17 2.48  25 2.48   5 2.48  37 2.48  35 2.48  23 2.48   9 2.87  33 2.87
                            19 2.87  39 2.87
  22  0.335  0.416  0.285-  35 2.43  36 2.44  24 2.44  38 2.46  23 2.47  18 2.48  26 2.48   6 2.49
                            34 2.83  39 2.83  19 2.84  20 2.85  10 2.92  40 2.97
  23  0.462  0.288  0.191-  22 2.47  10 2.47  19 2.48  27 2.48   7 2.48  39 2.48  21 2.48   9 2.48
                             6 2.81  26 2.84  35 2.87  11 2.87   5 2.87  25 2.87
  24  0.461  0.299  0.380-  69 1.87  65 1.89  22 2.44   8 2.51  10 2.51  20 2.51  28 2.52  40 2.57
                            26 2.77  36 2.88   6 2.90  12 3.03
  25  0.587  0.413  0.095-  21 2.48  29 2.48   9 2.48  41 2.48  39 2.48  27 2.48  13 2.87  37 2.87
                            23 2.87  43 2.87
  26  0.586  0.412  0.287-  42 2.46  39 2.47  27 2.47  10 2.48  22 2.48  30 2.49  28 2.49  40 2.64
                            44 2.75  24 2.77  23 2.84  38 2.87  43 2.87  14 2.89
  27  0.712  0.288  0.191-  14 2.45  26 2.47  23 2.48  31 2.48  11 2.48  43 2.48  25 2.48  13 2.48
                            30 2.83  10 2.84  39 2.87  15 2.87   9 2.87  29 2.87
  28  0.719  0.284  0.381-  69 1.87  66 1.91  44 2.43  14 2.46  32 2.47  26 2.49  24 2.52  12 2.56
                            30 2.83  10 2.86  16 2.87
  29  0.837  0.413  0.095-  17 2.48  25 2.48  13 2.48  45 2.48  43 2.48  31 2.48   1 2.87  41 2.87
                            27 2.87  47 2.87
  30  0.837  0.411  0.285-  32 2.42  44 2.45  31 2.45  43 2.45  14 2.48  46 2.48  26 2.49  18 2.49
                            48 2.81  27 2.83  28 2.83  42 2.85  47 2.85   2 2.88
  31  0.962  0.288  0.191-  30 2.45   2 2.45  27 2.48  19 2.48  15 2.48  47 2.48   1 2.48  29 2.48
                            14 2.82  18 2.83  43 2.87   3 2.87  17 2.87  13 2.87
  32  0.968  0.284  0.376-   2 2.38  30 2.42  20 2.44  48 2.45  28 2.47  16 2.49  18 2.77  14 2.81
                             4 2.85  44 2.93
  33  0.087  0.663  0.095-  37 2.48  45 2.48  17 2.48  49 2.48  35 2.48  63 2.48  61 2.87  21 2.87
                            47 2.87  51 2.87
  34  0.088  0.661  0.284-  64 2.36  36 2.38  35 2.42  63 2.43  18 2.48  38 2.48  46 2.49  50 2.49
                            47 2.81  22 2.83  51 2.83  62 2.87  48 2.89  52 2.95
  35  0.212  0.538  0.191-  34 2.42  22 2.43  39 2.48  47 2.48  19 2.48  51 2.48  21 2.48  33 2.48
                            38 2.79  18 2.85  23 2.87  63 2.87  37 2.87  17 2.87
  36  0.199  0.537  0.377-  68 1.83  34 2.38  48 2.38  20 2.43  22 2.44  40 2.57  52 2.58  18 2.73
                            64 2.78  24 2.88  38 2.92
  37  0.337  0.663  0.095-  33 2.48  41 2.48  21 2.48  53 2.48  51 2.48  39 2.48  25 2.87  49 2.87
                            35 2.87  55 2.87
  38  0.337  0.662  0.282-  51 2.40  39 2.40  22 2.46  52 2.47  40 2.47  34 2.48  42 2.48  54 2.50
                            35 2.79  55 2.80  56 2.84  50 2.85  26 2.87  36 2.92
  39  0.462  0.538  0.191-  38 2.40  26 2.47  35 2.48  43 2.48  23 2.48  55 2.48  37 2.48  25 2.48
                            42 2.81  22 2.83  51 2.87  27 2.87  21 2.87  41 2.87
  40  0.448  0.561  0.384-  69 1.90  68 1.91  56 2.41  44 2.47  38 2.47  24 2.57  52 2.57  36 2.57
                            26 2.64  42 2.85  22 2.97
  41  0.587  0.663  0.095-  37 2.48  45 2.48  25 2.48  57 2.48  55 2.48  43 2.48  29 2.87  53 2.87
                            39 2.87  59 2.87
  42  0.587  0.659  0.285-  56 2.41  44 2.42  43 2.43  26 2.46  55 2.46  38 2.48  46 2.48  58 2.51
                            39 2.81  40 2.85  30 2.85  59 2.86  60 2.86  54 2.91
  43  0.712  0.538  0.191-  42 2.43  30 2.45  39 2.48  47 2.48  27 2.48  59 2.48  41 2.48  29 2.48
                            46 2.81  55 2.87  31 2.87  25 2.87  45 2.87  26 2.87
  44  0.705  0.533  0.379-  67 1.88  42 2.42  28 2.43  30 2.45  40 2.47  69 2.50  60 2.54  48 2.54
                            26 2.75  46 2.90  32 2.93  56 2.94
  45  0.837  0.663  0.095-  33 2.48  41 2.48  29 2.48  61 2.48  59 2.48  47 2.48  17 2.87  57 2.87
                            43 2.87  63 2.87
  46  0.837  0.662  0.284-  47 2.43  59 2.43  60 2.44  48 2.47  42 2.48  62 2.48  30 2.48  34 2.49
                            64 2.78  43 2.81  63 2.83  58 2.87  18 2.87  44 2.90
  47  0.962  0.538  0.191-  46 2.43  18 2.45  43 2.48  35 2.48  31 2.48  63 2.48  17 2.48  45 2.48
                            34 2.81  30 2.85  59 2.87  19 2.87  33 2.87  29 2.87
  48  0.960  0.533  0.379-  67 1.88  36 2.38  18 2.44  32 2.45  46 2.47  44 2.54  64 2.54  30 2.81
                            60 2.85  20 2.85  34 2.89
  49  0.087  0.913  0.095-  53 2.48  61 2.48   1 2.48  33 2.48  15 2.48  51 2.48  37 2.87  13 2.87
                             3 2.87  63 2.87
  50  0.089  0.911  0.285-  16 2.41  51 2.44  54 2.45  15 2.46   2 2.49  34 2.49  62 2.50  52 2.50
                            64 2.73   4 2.77   3 2.83  63 2.84  38 2.85  14 2.86
  51  0.212  0.788  0.191-  38 2.40  50 2.44  55 2.48  63 2.48   3 2.48  35 2.48  49 2.48  37 2.48
                            54 2.80  34 2.83  39 2.87  15 2.87  53 2.87  33 2.87
  52  0.225  0.787  0.380-  68 1.84  56 2.37   4 2.42  38 2.47  50 2.50  40 2.57  36 2.58  64 2.59
                            54 2.81  16 2.88  34 2.95
  53  0.337  0.913  0.095-  49 2.48  57 2.48   5 2.48  37 2.48  55 2.48   3 2.48  41 2.87   1 2.87
                             7 2.87  51 2.87
  54  0.335  0.915  0.283-  56 2.34   4 2.39   3 2.39  55 2.42  50 2.45   6 2.49  58 2.49  38 2.50
                            51 2.80   7 2.81  52 2.81   2 2.82  42 2.91   8 2.94
  55  0.462  0.788  0.191-  54 2.42  42 2.46  51 2.48  59 2.48   7 2.48  39 2.48  41 2.48  53 2.48
                            38 2.80  58 2.85  43 2.87   3 2.87  37 2.87  57 2.87
  56  0.459  0.799  0.373-  54 2.34  52 2.37  40 2.41  42 2.41   8 2.47  60 2.51  58 2.67   4 2.75
                            38 2.84  44 2.94
  57  0.587  0.913  0.095-  53 2.48  61 2.48   9 2.48  41 2.48  59 2.48   7 2.48  45 2.87   5 2.87
                            11 2.87  55 2.87
  58  0.587  0.912  0.286-  60 2.45   8 2.46  59 2.47   7 2.47  62 2.49  10 2.49  54 2.49  42 2.51
                            56 2.67  12 2.76  55 2.85   6 2.86  46 2.87  11 2.87
  59  0.712  0.788  0.191-  46 2.43  58 2.47  55 2.48  63 2.48  11 2.48  43 2.48  45 2.48  57 2.48
                            62 2.81  42 2.86  47 2.87   7 2.87  41 2.87  61 2.87
  60  0.716  0.784  0.379-  67 1.88  12 2.41  46 2.44  58 2.45  64 2.49  56 2.51  44 2.54  48 2.85
                            62 2.85  42 2.86   8 2.93
  61  0.837  0.913  0.095-  49 2.48  57 2.48  13 2.48  45 2.48  11 2.48  63 2.48   9 2.87  33 2.87
                            59 2.87  15 2.87
  62  0.837  0.912  0.284-  64 2.36  12 2.39  63 2.43  11 2.43  46 2.48  14 2.48  58 2.49  50 2.50
                            59 2.81  15 2.83  60 2.85  10 2.85  16 2.86  34 2.87
  63  0.962  0.788  0.191-  62 2.43  34 2.43  59 2.48  51 2.48  47 2.48  15 2.48  61 2.48  33 2.48
                            46 2.83  50 2.84  35 2.87  11 2.87  49 2.87  45 2.87
  64  0.965  0.787  0.373-  34 2.36  62 2.36  16 2.45  60 2.49  48 2.54  52 2.59  50 2.73  46 2.78
                            36 2.78  12 2.80
  65  0.369  0.200  0.431-   8 1.86  20 1.86  24 1.89
  66  0.812  0.117  0.430-  16 1.85  12 1.87  28 1.91
  67  0.802  0.624  0.431-  48 1.88  60 1.88  44 1.88
  68  0.277  0.630  0.433-  36 1.83  52 1.84  40 1.91
  69  0.562  0.394  0.427-  28 1.87  24 1.87  40 1.90  44 2.50
 

IMPORTANT INFORMATION: All symmetrisations will be switched off!
NOSYMM: (Re-)initialisation of all symmetry stuff for point group C_1.

 
 

Automatic generation of k-mesh.
 generate k-points for:    3    3    1
Space group operators:
 irot       det(A)        alpha          n_x          n_y          n_z        tau_x        tau_y        tau_z
    1     1.000000     0.000001     1.000000     0.000000     0.000000     0.000000     0.000000     0.000000
 
 Subroutine IBZKPT returns following result:
 ===========================================
 
 Found      5 irreducible k-points:
 
 Following reciprocal coordinates:
            Coordinates               Weight
  0.000000  0.000000  0.000000      1.000000
  0.333333  0.000000  0.000000      2.000000
  0.000000  0.333333  0.000000      2.000000
  0.333333  0.333333  0.000000      2.000000
 -0.333333  0.333333  0.000000      2.000000
 
 Following cartesian coordinates:
            Coordinates               Weight
  0.000000  0.000000  0.000000      1.000000
  0.033570 -0.011869  0.000000      2.000000
  0.000000  0.035606  0.000000      2.000000
  0.033570  0.023738  0.000000      2.000000
 -0.033570  0.047475  0.000000      2.000000
 
 TETIRR: Found     24 inequivalent tetrahedra from       54


--------------------------------------------------------------------------------------------------------




 Dimension of arrays:
   k-points           NKPTS =      5   k-points in BZ     NKDIM =      5   number of bands    NBANDS=    360
   number of dos      NEDOS =    301   number of ions     NIONS =     69
   non local maximal  LDIM  =      6   non local SUM 2l+1 LMDIM =     18
   total plane-waves  NPLWV = ******
   max r-space proj   IRMAX =   7948   max aug-charges    IRDMAX=  18812
   dimension x,y,z NGX =    80 NGY =   80 NGZ =  160
   dimension x,y,z NGXF=   160 NGYF=  160 NGZF=  320
   support grid    NGXF=   160 NGYF=  160 NGZF=  320
   ions per type =              64   5
   NGX,Y,Z   is equivalent  to a cutoff of  13.39, 13.39, 12.62 a.u.
   NGXF,Y,Z  is equivalent  to a cutoff of  26.79, 26.79, 25.24 a.u.

 SYSTEM =  SQS-NiFe                                
 POSCAR =  POSCAR                                  

 Startparameter for this run:
   NWRITE =      2    write-flag & timer
   PREC   = accura    normal or accurate (medium, high low for compatibility)
   ISTART =      1    job   : 0-new  1-cont  2-samecut
   ICHARG =      1    charge: 1-file 2-atom 10-const
   ISPIN  =      2    spin polarized calculation?
   LNONCOLLINEAR =      F non collinear calculations
   LSORBIT =      F    spin-orbit coupling
   INIWAV =      1    electr: 0-lowe 1-rand  2-diag
   LASPH  =      F    aspherical Exc in radial PAW
   METAGGA=      F    non-selfconsistent MetaGGA calc.

 Electronic Relaxation 1
   ENCUT  =  520.0 eV  38.22 Ry    6.18 a.u.  18.46 18.46 39.20*2*pi/ulx,y,z
   ENINI  =  520.0     initial cutoff
   ENAUG  =  605.4 eV  augmentation charge cutoff
   NELM   =    200;   NELMIN=  2; NELMDL=  0     # of ELM steps 
   EDIFF  = 0.1E-05   stopping-criterion for ELM
   LREAL  =      T    real-space projection
   NLSPLINE    = F    spline interpolate recip. space projectors
   LCOMPAT=      F    compatible to vasp.4.4
   GGA_COMPAT  = T    GGA compatible to vasp.4.4-vasp.4.6
   LMAXPAW     = -100 max onsite density
   LMAXMIX     =    2 max onsite mixed and CHGCAR
   VOSKOWN=      0    Vosko Wilk Nusair interpolation
   ROPT   =   -0.00025  -0.00025
 Ionic relaxation
   EDIFFG = -.2E-01   stopping-criterion for IOM
   NSW    =      0    number of steps for IOM
   NBLOCK =      1;   KBLOCK =      1    inner block; outer block 
   IBRION =     -1    ionic relax: 0-MD 1-quasi-New 2-CG
   NFREE  =      0    steps in history (QN), initial steepest desc. (CG)
   ISIF   =      2    stress and relaxation
   IWAVPR =     10    prediction:  0-non 1-charg 2-wave 3-comb
   ISYM   =      0    0-nonsym 1-usesym 2-fastsym
   LCORR  =      T    Harris-Foulkes like correction to forces

   POTIM  = 0.5000    time-step for ionic-motion
   TEIN   =    0.0    initial temperature
   TEBEG  =    0.0;   TEEND  =   0.0 temperature during run
   SMASS  =  -3.00    Nose mass-parameter (am)
   estimated Nose-frequenzy (Omega)   =  0.10E-29 period in steps =****** mass=  -0.225E-26a.u.
   SCALEE = 1.0000    scale energy and forces
   NPACO  =    256;   APACO  = 16.0  distance and # of slots for P.C.
   PSTRESS=    0.0 pullay stress

  Mass of Ions in am
   POMASS =  55.85 16.00
  Ionic Valenz
   ZVAL   =   8.00  6.00
  Atomic Wigner-Seitz radii
   RWIGS  =  -1.00 -1.00
  virtual crystal weights 
   VCA    =   1.00  1.00
   NELECT =     542.0000    total number of electrons
   NUPDOWN=      -1.0000    fix difference up-down

 DOS related values:
   EMIN   =  10.00;   EMAX   =-10.00  energy-range for DOS
   EFERMI =   0.00
   ISMEAR =    -5;   SIGMA  =   0.20  broadening in eV -4-tet -1-fermi 0-gaus

 Electronic relaxation 2 (details)
   IALGO  =     68    algorithm
   LDIAG  =      T    sub-space diagonalisation (order eigenvalues)
   LSUBROT=      F    optimize rotation matrix (better conditioning)
   TURBO    =      0    0=normal 1=particle mesh
   IRESTART =      0    0=no restart 2=restart with 2 vectors
   NREBOOT  =      0    no. of reboots
   NMIN     =      0    reboot dimension
   EREF     =   0.00    reference energy to select bands
   IMIX   =      4    mixing-type and parameters
     AMIX     =   0.40;   BMIX     =  1.00
     AMIX_MAG =   1.60;   BMIX_MAG =  1.00
     AMIN     =   0.10
     WC   =   100.;   INIMIX=   1;  MIXPRE=   1;  MAXMIX= -45

 Intra band minimization:
   WEIMIN = 0.0000     energy-eigenvalue tresh-hold
   EBREAK =  0.69E-09  absolut break condition
   DEPER  =   0.30     relativ break condition  

   TIME   =   0.40     timestep for ELM

  volume/ion in A,a.u.               =      28.40       191.65
  Fermi-wavevector in a.u.,A,eV,Ry     =   1.066648  2.015672 15.479864  1.137738
  Thomas-Fermi vector in A             =   2.202239
 
 Write flags
   LWAVE        =      T    write WAVECAR
   LDOWNSAMPLE  =      F    k-point downsampling of WAVECAR
   LCHARG       =      T    write CHGCAR
   LVTOT        =      F    write LOCPOT, total local potential
   LVHAR        =      F    write LOCPOT, Hartree potential only
   LELF         =      F    write electronic localiz. function (ELF)
   LORBIT       =     11    0 simple, 1 ext, 2 COOP (PROOUT), +10 PAW based schemes


 Dipole corrections
   LMONO  =      F    monopole corrections only (constant potential shift)
   LDIPOL =      T    correct potential (dipole corrections)
   IDIPOL =      3    1-x, 2-y, 3-z, 4-all directions 
   EPSILON=  1.0000000 bulk dielectric constant

 Exchange correlation treatment:
   GGA     =    --    GGA type
   LEXCH   =     8    internal setting for exchange type
   VOSKOWN=      0    Vosko Wilk Nusair interpolation
   LHFCALC =     F    Hartree Fock is set to
   LHFONE  =     F    Hartree Fock one center treatment
   AEXX    =    0.0000 exact exchange contribution

 Linear response parameters
   LEPSILON=     F    determine dielectric tensor
   LRPA    =     F    only Hartree local field effects (RPA)
   LNABLA  =     F    use nabla operator in PAW spheres
   LVEL    =     F    velocity operator in full k-point grid
   LINTERFAST=   F  fast interpolation
   KINTER  =     0    interpolate to denser k-point grid
   CSHIFT  =0.1000    complex shift for real part using Kramers Kronig
   OMEGAMAX=  -1.0    maximum frequency
   DEG_THRESHOLD= 0.2000000E-02 threshold for treating states as degnerate
   RTIME   =   -0.100 relaxation time in fs
  (WPLASMAI=    0.000 imaginary part of plasma frequency in eV, 0.658/RTIME)
   DFIELD  = 0.0000000 0.0000000 0.0000000 field for delta impulse in time
 
 Orbital magnetization related:
   ORBITALMAG=     F  switch on orbital magnetization
   LCHIMAG   =     F  perturbation theory with respect to B field
   DQ        =  0.001000  dq finite difference perturbation B field
   LLRAUG    =     F  two centre corrections for induced B field



--------------------------------------------------------------------------------------------------------


 Static calculation
 charge density and potential will be updated during run
 spin polarized calculation
 RMM-DIIS sequential band-by-band and
  variant of blocked Davidson during initial phase
 perform sub-space diagonalisation
    before iterative eigenvector-optimisation
 modified Broyden-mixing scheme, WC =      100.0
 initial mixing is a Kerker type mixing with AMIX =  0.4000 and BMIX =      1.0000
 Hartree-type preconditioning will be used
 using additional bands           89
 real space projection scheme for non local part
 use partial core corrections
 calculate Harris-corrections to forces 
   (improved forces if not selfconsistent)
 use gradient corrections 
 use of overlap-Matrix (Vanderbilt PP)
 Fermi weights with tetrahedron method with Bloechl corrections


--------------------------------------------------------------------------------------------------------


  energy-cutoff  :      520.00
  volume of cell :     1959.57
      direct lattice vectors                 reciprocal lattice vectors
     9.929500000  0.000000000  0.000000000     0.100710006 -0.035606363  0.000000000
     3.309833230  9.361622420  0.000000000     0.000000000  0.106819091  0.000000000
     0.000000000  0.000000000 21.080550000     0.000000000  0.000000000  0.047437092

  length of vectors
     9.929500000  9.929500005 21.080550000     0.106819091  0.106819091  0.047437092


 
 old parameters found on file WAVECAR:
  energy-cutoff  :      520.00
  volume of cell :     1959.57
      direct lattice vectors                 reciprocal lattice vectors
     9.929500000  0.000000000  0.000000000     0.100710006 -0.035606363  0.000000000
     3.309833230  9.361622420  0.000000000     0.000000000  0.106819091  0.000000000
     0.000000000  0.000000000 21.080550000     0.000000000  0.000000000  0.047437092

  length of vectors

 
 k-points in units of 2pi/SCALE and weight: read from INCAR                         
   0.00000000  0.00000000  0.00000000       0.111
   0.03357000 -0.01186879  0.00000000       0.222
   0.00000000  0.03560636  0.00000000       0.222
   0.03357000  0.02373758  0.00000000       0.222
  -0.03357000  0.04747515  0.00000000       0.222
 
 k-points in reciprocal lattice and weights: read from INCAR                         
   0.00000000  0.00000000  0.00000000       0.111
   0.33333333  0.00000000  0.00000000       0.222
   0.00000000  0.33333333  0.00000000       0.222
   0.33333333  0.33333333  0.00000000       0.222
  -0.33333333  0.33333333  0.00000000       0.222
 
 position of ions in fractional coordinates (direct lattice) 
   0.08738900  0.16261100  0.09487400
   0.08935202  0.16158553  0.28483206
   0.21238900  0.03761100  0.19102200
   0.21382190  0.03371630  0.37557280
   0.33738900  0.16261100  0.09487400
   0.33938437  0.16363940  0.28484144
   0.46238900  0.03761100  0.19102200
   0.46472581  0.04508752  0.37989491
   0.58738900  0.16261100  0.09487400
   0.58967284  0.16132487  0.28602427
   0.71238900  0.03761100  0.19102200
   0.71611265  0.02682247  0.37763386
   0.83738900  0.16261100  0.09487400
   0.83942579  0.16101811  0.28450218
   0.96238900  0.03761100  0.19102200
   0.96882526  0.03279483  0.37855590
   0.08738900  0.41261100  0.09487400
   0.08672108  0.41186524  0.28527547
   0.21238900  0.28761100  0.19102200
   0.21202945  0.28800306  0.37977764
   0.33738900  0.41261100  0.09487400
   0.33501873  0.41551272  0.28514877
   0.46238900  0.28761100  0.19102200
   0.46090148  0.29884700  0.38042317
   0.58738900  0.41261100  0.09487400
   0.58607594  0.41191078  0.28650171
   0.71238900  0.28761100  0.19102200
   0.71937663  0.28354802  0.38086120
   0.83738900  0.41261100  0.09487400
   0.83656516  0.41135205  0.28521321
   0.96238900  0.28761100  0.19102200
   0.96769336  0.28428552  0.37587215
   0.08738900  0.66261100  0.09487400
   0.08757339  0.66084526  0.28386033
   0.21238900  0.53761100  0.19102200
   0.19876155  0.53705439  0.37688814
   0.33738900  0.66261100  0.09487400
   0.33669974  0.66211573  0.28223231
   0.46238900  0.53761100  0.19102200
   0.44839831  0.56139545  0.38425774
   0.58738900  0.66261100  0.09487400
   0.58740032  0.65880123  0.28513358
   0.71238900  0.53761100  0.19102200
   0.70493087  0.53273748  0.37860916
   0.83738900  0.66261100  0.09487400
   0.83658617  0.66159259  0.28426521
   0.96238900  0.53761100  0.19102200
   0.96027813  0.53292513  0.37940220
   0.08738900  0.91261100  0.09487400
   0.08922133  0.91114551  0.28509122
   0.21238900  0.78761100  0.19102200
   0.22531737  0.78677080  0.38023833
   0.33738900  0.91261100  0.09487400
   0.33483778  0.91456577  0.28289198
   0.46238900  0.78761100  0.19102200
   0.45904215  0.79881739  0.37292238
   0.58738900  0.91261100  0.09487400
   0.58676652  0.91152364  0.28643675
   0.71238900  0.78761100  0.19102200
   0.71553458  0.78440373  0.37938295
   0.83738900  0.91261100  0.09487400
   0.83726625  0.91153786  0.28403214
   0.96238900  0.78761100  0.19102200
   0.96474452  0.78730260  0.37278922
   0.36900172  0.19985693  0.43148371
   0.81155814  0.11702907  0.42986064
   0.80194638  0.62414467  0.43078540
   0.27713296  0.62991051  0.43317108
   0.56157245  0.39441871  0.42740555
 
 position of ions in cartesian coordinates  (Angst):
   1.40594437  1.52230278  1.99999610
   1.42204200  1.51270274  6.00441657
   2.23340271  0.35209998  4.02684882
   2.23473990  0.31563931  7.91728124
   3.88831937  1.52230278  1.99999610
   3.91153621  1.53193024  6.00461423
   4.71577771  0.35209998  4.02684882
   4.76372713  0.42209230  8.00839356
   6.37069437  1.52230278  1.99999610
   6.38911487  1.51026250  6.02954887
   7.19815271  0.35209998  4.02684882
   7.19941845  0.25110186  7.96072944
   8.85306937  1.52230278  1.99999610
   8.86802143  1.50739074  5.99746237
   9.68052771  0.35209998  4.02684882
   9.72849582  0.30701286  7.98016661
   2.23340267  3.86270839  1.99999610
   2.22430217  3.85572684  6.01376377
   3.06086102  2.69250559  4.02684882
   3.05858849  2.69617590  8.00592142
   4.71577767  3.86270839  1.99999610
   4.70184633  3.88987323  6.01109299
   5.54323602  2.69250559  4.02684882
   5.56565501  2.79769280  8.01952962
   7.19815267  3.86270839  1.99999610
   7.18279703  3.85615318  6.03961352
   8.02561102  2.69250559  4.02684882
   8.08154696  2.65446953  8.02876351
   9.68052767  3.86270839  1.99999610
   9.66818046  3.85092261  6.01245144
  10.50798602  2.69250559  4.02684882
  10.54964887  2.66137371  7.92359168
   3.06086098  6.20311399  1.99999610
   3.05684759  6.18658381  5.98393198
   3.88831933  5.03291119  4.02684882
   3.75116329  5.02770039  7.94500938
   5.54323598  6.20311399  1.99999610
   5.53475269  6.19847742  5.94961230
   6.37069433  5.03291119  4.02684882
   6.31049631  5.25557226  8.10036448
   8.02561098  6.20311399  1.99999610
   8.01311368  6.16744833  6.01077279
   8.85306933  5.03291119  4.02684882
   8.76288326  4.98728717  7.98128931
  10.50798598  6.20311399  1.99999610
  10.49664355  6.19358004  5.99246690
  11.33544433  5.03291119  4.02684882
  11.29897504  4.98904388  7.99800712
   3.88831929  8.54351960  1.99999610
   3.90166292  8.52980024  6.00987976
   4.71577764  7.37331680  4.02684882
   4.84136900  7.36545120  8.01563318
   6.37069429  8.54351960  1.99999610
   6.35183188  8.56181939  5.96351850
   7.19815264  7.37331680  4.02684882
   7.20201140  7.47822679  7.86140883
   8.85306929  8.54351960  1.99999610
   8.84328935  8.53334011  6.03824428
   9.68052764  7.37331680  4.02684882
   9.70114616  7.34329151  7.99760124
  11.33544429  8.54351960  1.99999610
  11.33067348  8.53347327  5.98755366
  12.16290264  7.37331680  4.02684882
  12.18527104  7.37042967  7.85860172
   4.32549566  1.87098508  9.09591390
   8.44571327  1.09558194  9.06169878
  10.02874138  5.84300674  9.08119306
   4.83669042  5.89698431  9.13148456
   6.88159379  3.69239901  9.00994403
 


--------------------------------------------------------------------------------------------------------


 k-point  1 :   0.0000 0.0000 0.0000  plane waves:   52797
 k-point  2 :   0.3333 0.0000 0.0000  plane waves:   52741
 k-point  3 :   0.0000 0.3333 0.0000  plane waves:   52741
 k-point  4 :   0.3333 0.3333 0.0000  plane waves:   52754
 k-point  5 :  -0.3333 0.3333 0.0000  plane waves:   52703

 maximum and minimum number of plane-waves per node :      2214     2178

 maximum number of plane-waves:     52797
 maximum index in each direction: 
   IXMAX=   18   IYMAX=   18   IZMAX=   39
   IXMIN=  -18   IYMIN=  -18   IZMIN=  -39


 real space projection operators:
  total allocation   :      69724.98 KBytes
  max/ min on nodes  :       3512.78       2567.84


 parallel 3D FFT for wavefunctions:
    minimum data exchange during FFTs selected (reduces bandwidth)
 parallel 3D FFT for charge:
    minimum data exchange during FFTs selected (reduces bandwidth)


 total amount of memory used by VASP MPI-rank0   110028. kBytes
=======================================================================

   base      :      30000. kBytes
   nonlr-proj:      13534. kBytes
   fftplans  :       6401. kBytes
   grid      :      16455. kBytes
   one-center:         93. kBytes
   wavefun   :      43545. kBytes
 
     INWAV:  cpu time   10.4386: real time   10.7727
 Broyden mixing: mesh for mixing (old mesh)
   NGX = 37   NGY = 37   NGZ = 79
  (NGX  =160   NGY  =160   NGZ  =320)
  gives a total of 108151 points

 initial charge density was supplied:
 number of electron     542.0000174 magnetization     137.1383573
 keeping initial charge density in first step


--------------------------------------------------------------------------------------------------------


 Maximum index for non-local projection operator          801
 Maximum index for augmentation-charges         1219 (set IRDMAX)


--------------------------------------------------------------------------------------------------------


 First call to EWALD:  gamma=   0.142
 Maximum number of real-space cells 4x 4x 2
 Maximum number of reciprocal cells 2x 2x 4

    FEWALD:  cpu time    0.0036: real time    0.0033


--------------------------------------- Iteration      1(   1)  ---------------------------------------


    POTLOK:  cpu time    0.4103: real time    0.4232
    SETDIJ:  cpu time    0.0247: real time    0.0245
     EDDAV:  cpu time   41.0738: real time   41.0928
 BZINTS: Fermi energy: -0.633870;542.000000 electrons
         Band energy:***********;  BLOECHL correction: -0.012532
       DOS:  cpu time    0.0428: real time    0.0428
    CHARGE:  cpu time    0.9434: real time    0.9436
    MIXING:  cpu time    0.0062: real time    0.0062
    --------------------------------------------
      LOOP:  cpu time   42.5013: real time   42.5332

 eigenvalue-minimisations  :  9693
 total energy-change (2. order) :-0.5383454E+03  (-0.3628452E-01)
 number of electron     542.0000175 magnetization     137.2509521
 augmentation part      270.0291785 magnetization     109.6078900

 DIPCOR: dipole corrections for dipol
 direction  3 min pos   240,
 dipolmoment           0.000000      0.000000      0.303793 electrons x Angstroem
 Tr[quadrupol]     -8923.608870

 energy correction for charged system         0.000000 eV
 dipol+quadrupol energy correction           -0.004262 eV
 added-field ion interaction         -0.342787 eV  (added to PSCEN)


 Broyden mixing:
  rms(total) = 0.14135E+00    rms(broyden)= 0.14125E+00
  rms(prec ) = 0.14589E+00
  weight for this iteration     100.00

 Free energy of the ion-electron system (eV)
  ---------------------------------------------------
  alpha Z        PSCENC =      1560.98367377
  Ewald energy   TEWEN  =    149783.11082118
  -Hartree energ DENC   =   -190111.00971263
  -exchange      EXHF   =         0.00000000
  -V(xc)+E(xc)   XCENC  =       415.61245790
  PAW double counting   =     47544.48677046   -48133.68030444
  entropy T*S    EENTRO =         0.00000000
  eigenvalues    EBANDS =     -1795.65060427
  atomic energy  EATOM  =     40197.80149763
  Solvation  Ediel_sol  =         0.00000000
  ---------------------------------------------------
  free energy    TOTEN  =      -538.34540039 eV

  energy without entropy =     -538.34540039  energy(sigma->0) =     -538.34540039


--------------------------------------------------------------------------------------------------------




--------------------------------------- Iteration      1(   2)  ---------------------------------------


    POTLOK:  cpu time    0.4130: real time    0.4240
    SETDIJ:  cpu time    0.0242: real time    0.0243
    EDDIAG:  cpu time    4.8151: real time    4.8163
  RMM-DIIS:  cpu time   17.8508: real time   17.8630
    ORTHCH:  cpu time    1.3157: real time    1.3159
 BZINTS: Fermi energy: -0.624798;542.000000 electrons
         Band energy:***********;  BLOECHL correction: -0.018930
       DOS:  cpu time    0.0433: real time    0.0434
    CHARGE:  cpu time    0.9336: real time    0.9337
    MIXING:  cpu time    0.0064: real time    0.0064
    --------------------------------------------
      LOOP:  cpu time   25.4022: real time   25.4269

 eigenvalue-minimisations  :  7388
 total energy-change (2. order) :-0.5988730E+00  (-0.3854520E-01)
 number of electron     542.0000173 magnetization     137.2675733
 augmentation part      269.8598782 magnetization     109.4888202

 DIPCOR: dipole corrections for dipol
 direction  3 min pos   243,
 dipolmoment           0.000000      0.000000      0.250009 electrons x Angstroem
 Tr[quadrupol]     -8923.801082

 energy correction for charged system         0.000000 eV
 dipol+quadrupol energy correction           -0.002886 eV
 added-field ion interaction          2.191050 eV  (added to PSCEN)


 Broyden mixing:
  rms(total) = 0.49157E+00    rms(broyden)= 0.49155E+00
  rms(prec ) = 0.62560E+00
  weight for this iteration     100.00

 eigenvalues of (default mixing * dielectric matrix)
  average eigenvalue GAMMA=   0.2253
  0.2253

 Free energy of the ion-electron system (eV)
  ---------------------------------------------------
  alpha Z        PSCENC =      1563.51888558
  Ewald energy   TEWEN  =    149783.11082118
  -Hartree energ DENC   =   -190117.66357634
  -exchange      EXHF   =         0.00000000
  -V(xc)+E(xc)   XCENC  =       416.85703725
  PAW double counting   =     47555.96168609   -48145.45518195
  entropy T*S    EENTRO =         0.00000000
  eigenvalues    EBANDS =     -1793.07544282
  atomic energy  EATOM  =     40197.80149763
  Solvation  Ediel_sol  =         0.00000000
  ---------------------------------------------------
  free energy    TOTEN  =      -538.94427338 eV

  energy without entropy =     -538.94427338  energy(sigma->0) =     -538.94427338


--------------------------------------------------------------------------------------------------------




--------------------------------------- Iteration      1(   3)  ---------------------------------------


    POTLOK:  cpu time    0.4136: real time    0.4244
    SETDIJ:  cpu time    0.0242: real time    0.0242
    EDDIAG:  cpu time    4.8114: real time    4.8126
  RMM-DIIS:  cpu time   18.5725: real time   18.5861
    ORTHCH:  cpu time    1.3044: real time    1.3046
 BZINTS: Fermi energy: -0.610094;542.000000 electrons
         Band energy:***********;  BLOECHL correction: -0.015244
       DOS:  cpu time    0.0424: real time    0.0424
    CHARGE:  cpu time    0.9334: real time    0.9335
    MIXING:  cpu time    0.0065: real time    0.0065
    --------------------------------------------
      LOOP:  cpu time   26.1084: real time   26.1342

 eigenvalue-minimisations  :  7682
 total energy-change (2. order) : 0.7457559E-02  (-0.1700964E-01)
 number of electron     542.0000175 magnetization     137.2662068
 augmentation part      269.5978605 magnetization     110.2900577

 DIPCOR: dipole corrections for dipol
 direction  3 min pos   239,
 dipolmoment           0.000000      0.000000      0.373759 electrons x Angstroem
 Tr[quadrupol]     -8923.650569

 energy correction for charged system         0.000000 eV
 dipol+quadrupol energy correction           -0.006451 eV
 added-field ion interaction         -1.654174 eV  (added to PSCEN)


 Broyden mixing:
  rms(total) = 0.40492E+00    rms(broyden)= 0.40489E+00
  rms(prec ) = 0.59791E+00
  weight for this iteration     100.00

 eigenvalues of (default mixing * dielectric matrix)
  average eigenvalue GAMMA=   0.2309
  0.3861  0.0758

 Free energy of the ion-electron system (eV)
  ---------------------------------------------------
  alpha Z        PSCENC =      1559.67009756
  Ewald energy   TEWEN  =    149783.11082118
  -Hartree energ DENC   =   -190118.09122352
  -exchange      EXHF   =         0.00000000
  -V(xc)+E(xc)   XCENC  =       416.71503057
  PAW double counting   =     47558.15517526   -48147.49741119
  entropy T*S    EENTRO =         0.00000000
  eigenvalues    EBANDS =     -1788.80080331
  atomic energy  EATOM  =     40197.80149763
  Solvation  Ediel_sol  =         0.00000000
  ---------------------------------------------------
  free energy    TOTEN  =      -538.93681582 eV

  energy without entropy =     -538.93681582  energy(sigma->0) =     -538.93681582


--------------------------------------------------------------------------------------------------------




--------------------------------------- Iteration      1(   4)  ---------------------------------------


    POTLOK:  cpu time    0.4281: real time    0.4285
    SETDIJ:  cpu time    0.0242: real time    0.0242
    EDDIAG:  cpu time    4.8201: real time    4.8210
  RMM-DIIS:  cpu time   18.2056: real time   18.2108
    ORTHCH:  cpu time    1.3084: real time    1.3086
 BZINTS: Fermi energy: -0.618645;542.000000 electrons
         Band energy:***********;  BLOECHL correction: -0.017295
       DOS:  cpu time    0.0436: real time    0.0436
    CHARGE:  cpu time    0.9347: real time    0.9348
    MIXING:  cpu time    0.0067: real time    0.0067
    --------------------------------------------
      LOOP:  cpu time   25.7716: real time   25.7782

 eigenvalue-minimisations  :  7525
 total energy-change (2. order) : 0.7011093E-01  (-0.1123348E-01)
 number of electron     542.0000174 magnetization     137.2812462
 augmentation part      269.8564512 magnetization     109.6858920

 DIPCOR: dipole corrections for dipol
 direction  3 min pos   239,
 dipolmoment           0.000000      0.000000      0.271300 electrons x Angstroem
 Tr[quadrupol]     -8923.528063

 energy correction for charged system         0.000000 eV
 dipol+quadrupol energy correction           -0.003399 eV
 added-field ion interaction         -1.200713 eV  (added to PSCEN)


 Broyden mixing:
  rms(total) = 0.24809E+00    rms(broyden)= 0.24806E+00
  rms(prec ) = 0.32331E+00
  weight for this iteration     100.00

 eigenvalues of (default mixing * dielectric matrix)
  average eigenvalue GAMMA=   0.2299
  0.4821  0.1471  0.0603

 Free energy of the ion-electron system (eV)
  ---------------------------------------------------
  alpha Z        PSCENC =      1560.12661022
  Ewald energy   TEWEN  =    149783.11082118
  -Hartree energ DENC   =   -190112.66586720
  -exchange      EXHF   =         0.00000000
  -V(xc)+E(xc)   XCENC  =       416.42118353
  PAW double counting   =     47556.56119728   -48145.61851740
  entropy T*S    EENTRO =         0.00000000
  eigenvalues    EBANDS =     -1794.60363013
  atomic energy  EATOM  =     40197.80149763
  Solvation  Ediel_sol  =         0.00000000
  ---------------------------------------------------
  free energy    TOTEN  =      -538.86670489 eV

  energy without entropy =     -538.86670489  energy(sigma->0) =     -538.86670489


--------------------------------------------------------------------------------------------------------




--------------------------------------- Iteration      1(   5)  ---------------------------------------


    POTLOK:  cpu time    0.4146: real time    0.4318
    SETDIJ:  cpu time    0.0245: real time    0.0243
    EDDIAG:  cpu time    4.8170: real time    4.8183
  RMM-DIIS:  cpu time   17.6470: real time   17.6575
    ORTHCH:  cpu time    1.3103: real time    1.3105
 BZINTS: Fermi energy: -0.625548;542.000000 electrons
         Band energy:***********;  BLOECHL correction: -0.014079
       DOS:  cpu time    0.0434: real time    0.0434
    CHARGE:  cpu time    0.9342: real time    0.9344
    MIXING:  cpu time    0.0068: real time    0.0068
    --------------------------------------------
      LOOP:  cpu time   25.1977: real time   25.2270

 eigenvalue-minimisations  :  7281
 total energy-change (2. order) : 0.3344591E-01  (-0.2793274E-02)
 number of electron     542.0000174 magnetization     137.2910191
 augmentation part      269.8149569 magnetization     109.7723986

 DIPCOR: dipole corrections for dipol
 direction  3 min pos   242,
 dipolmoment           0.000000      0.000000      0.299588 electrons x Angstroem
 Tr[quadrupol]     -8923.683439

 energy correction for charged system         0.000000 eV
 dipol+quadrupol energy correction           -0.004144 eV
 added-field ion interaction          1.637693 eV  (added to PSCEN)


 Broyden mixing:
  rms(total) = 0.74719E-01    rms(broyden)= 0.74698E-01
  rms(prec ) = 0.82107E-01
  weight for this iteration     100.00

 eigenvalues of (default mixing * dielectric matrix)
  average eigenvalue GAMMA=   0.2260
  0.3916  0.3118  0.0610  0.1397

 Free energy of the ion-electron system (eV)
  ---------------------------------------------------
  alpha Z        PSCENC =      1562.96427016
  Ewald energy   TEWEN  =    149783.11082118
  -Hartree energ DENC   =   -190113.16888441
  -exchange      EXHF   =         0.00000000
  -V(xc)+E(xc)   XCENC  =       416.29437214
  PAW double counting   =     47557.93215897   -48146.83685550
  entropy T*S    EENTRO =         0.00000000
  eigenvalues    EBANDS =     -1796.93063916
  atomic energy  EATOM  =     40197.80149763
  Solvation  Ediel_sol  =         0.00000000
  ---------------------------------------------------
  free energy    TOTEN  =      -538.83325898 eV

  energy without entropy =     -538.83325898  energy(sigma->0) =     -538.83325898


--------------------------------------------------------------------------------------------------------




--------------------------------------- Iteration      1(   6)  ---------------------------------------


    POTLOK:  cpu time    0.4268: real time    0.4272
    SETDIJ:  cpu time    0.0241: real time    0.0241
    EDDIAG:  cpu time    4.8220: real time    4.8282
  RMM-DIIS:  cpu time   19.9814: real time   19.9906
    ORTHCH:  cpu time    1.3117: real time    1.3119
 BZINTS: Fermi energy: -0.629837;542.000000 electrons
         Band energy:***********;  BLOECHL correction: -0.014280
       DOS:  cpu time    0.0434: real time    0.0434
    CHARGE:  cpu time    0.9330: real time    0.9331
    MIXING:  cpu time    0.0068: real time    0.0068
    --------------------------------------------
      LOOP:  cpu time   27.5491: real time   27.5654

 eigenvalue-minimisations  :  8275
 total energy-change (2. order) : 0.2866266E-03  (-0.1168668E-02)
 number of electron     542.0000174 magnetization     137.3050455
 augmentation part      269.8162038 magnetization     109.8255025

 DIPCOR: dipole corrections for dipol
 direction  3 min pos   244,
 dipolmoment           0.000000      0.000000      0.300214 electrons x Angstroem
 Tr[quadrupol]     -8923.774621

 energy correction for charged system         0.000000 eV
 dipol+quadrupol energy correction           -0.004162 eV
 added-field ion interaction          3.620974 eV  (added to PSCEN)


 Broyden mixing:
  rms(total) = 0.53275E-01    rms(broyden)= 0.53271E-01
  rms(prec ) = 0.57785E-01
  weight for this iteration     100.00

 eigenvalues of (default mixing * dielectric matrix)
  average eigenvalue GAMMA=   0.2744
  0.5086  0.5086  0.0610  0.1607  0.1332

 Free energy of the ion-electron system (eV)
  ---------------------------------------------------
  alpha Z        PSCENC =      1564.94753438
  Ewald energy   TEWEN  =    149783.11082118
  -Hartree energ DENC   =   -190113.25235179
  -exchange      EXHF   =         0.00000000
  -V(xc)+E(xc)   XCENC  =       416.23551364
  PAW double counting   =     47558.29996894   -48147.14895433
  entropy T*S    EENTRO =         0.00000000
  eigenvalues    EBANDS =     -1798.82700200
  atomic energy  EATOM  =     40197.80149763
  Solvation  Ediel_sol  =         0.00000000
  ---------------------------------------------------
  free energy    TOTEN  =      -538.83297236 eV

  energy without entropy =     -538.83297236  energy(sigma->0) =     -538.83297236


--------------------------------------------------------------------------------------------------------




--------------------------------------- Iteration      1(   7)  ---------------------------------------


    POTLOK:  cpu time    0.4143: real time    0.4258
    SETDIJ:  cpu time    0.0246: real time    0.0246
    EDDIAG:  cpu time    4.8175: real time    4.8187
  RMM-DIIS:  cpu time   21.5667: real time   21.5786
    ORTHCH:  cpu time    1.3120: real time    1.3121
 BZINTS: Fermi energy: -0.628053;542.000000 electrons
         Band energy:***********;  BLOECHL correction: -0.014452
       DOS:  cpu time    0.0412: real time    0.0412
    CHARGE:  cpu time    0.9337: real time    0.9341
    MIXING:  cpu time    0.0071: real time    0.0071
    --------------------------------------------
      LOOP:  cpu time   29.1171: real time   29.1422

 eigenvalue-minimisations  :  8986
 total energy-change (2. order) :-0.2660253E-02  (-0.7044044E-03)
 number of electron     542.0000174 magnetization     137.3164977
 augmentation part      269.8247465 magnetization     109.7987700

 DIPCOR: dipole corrections for dipol
 direction  3 min pos   243,
 dipolmoment           0.000000      0.000000      0.303339 electrons x Angstroem
 Tr[quadrupol]     -8923.728800

 energy correction for charged system         0.000000 eV
 dipol+quadrupol energy correction           -0.004249 eV
 added-field ion interaction          2.658427 eV  (added to PSCEN)


 Broyden mixing:
  rms(total) = 0.54746E-01    rms(broyden)= 0.54744E-01
  rms(prec ) = 0.60995E-01
  weight for this iteration     100.00

 eigenvalues of (default mixing * dielectric matrix)
  average eigenvalue GAMMA=   0.3033
  0.5977  0.5977  0.2768  0.0609  0.1611  0.1253

 Free energy of the ion-electron system (eV)
  ---------------------------------------------------
  alpha Z        PSCENC =      1563.98490041
  Ewald energy   TEWEN  =    149783.11082118
  -Hartree energ DENC   =   -190112.67065117
  -exchange      EXHF   =         0.00000000
  -V(xc)+E(xc)   XCENC  =       416.11103785
  PAW double counting   =     47558.50479141   -48147.29171931
  entropy T*S    EENTRO =         0.00000000
  eigenvalues    EBANDS =     -1798.38631061
  atomic energy  EATOM  =     40197.80149763
  Solvation  Ediel_sol  =         0.00000000
  ---------------------------------------------------
  free energy    TOTEN  =      -538.83563261 eV

  energy without entropy =     -538.83563261  energy(sigma->0) =     -538.83563261


--------------------------------------------------------------------------------------------------------




--------------------------------------- Iteration      1(   8)  ---------------------------------------


    POTLOK:  cpu time    0.4184: real time    0.4304
    SETDIJ:  cpu time    0.0241: real time    0.0241
    EDDIAG:  cpu time    4.8040: real time    4.8053
  RMM-DIIS:  cpu time   19.1063: real time   19.1178
    ORTHCH:  cpu time    1.3121: real time    1.3125
 BZINTS: Fermi energy: -0.630629;542.000000 electrons
         Band energy:***********;  BLOECHL correction: -0.014586
       DOS:  cpu time    0.0434: real time    0.0433
    CHARGE:  cpu time    0.9325: real time    0.9327
    MIXING:  cpu time    0.0070: real time    0.0071
    --------------------------------------------
      LOOP:  cpu time   26.6478: real time   26.6732

 eigenvalue-minimisations  :  7940
 total energy-change (2. order) :-0.3291856E-03  (-0.3940814E-03)
 number of electron     542.0000174 magnetization     137.3374099
 augmentation part      269.8291633 magnetization     109.8191372

 DIPCOR: dipole corrections for dipol
 direction  3 min pos   244,
 dipolmoment           0.000000      0.000000      0.305633 electrons x Angstroem
 Tr[quadrupol]     -8923.778801

 energy correction for charged system         0.000000 eV
 dipol+quadrupol energy correction           -0.004313 eV
 added-field ion interaction          3.686329 eV  (added to PSCEN)


 Broyden mixing:
  rms(total) = 0.37978E-01    rms(broyden)= 0.37975E-01
  rms(prec ) = 0.44245E-01
  weight for this iteration     100.00

 eigenvalues of (default mixing * dielectric matrix)
  average eigenvalue GAMMA=   0.4004
  0.9010  0.9010  0.5103  0.0610  0.1753  0.1375  0.1165

 Free energy of the ion-electron system (eV)
  ---------------------------------------------------
  alpha Z        PSCENC =      1565.01273790
  Ewald energy   TEWEN  =    149783.11082118
  -Hartree energ DENC   =   -190112.75611690
  -exchange      EXHF   =         0.00000000
  -V(xc)+E(xc)   XCENC  =       416.05356744
  PAW double counting   =     47558.67543381   -48147.43932736
  entropy T*S    EENTRO =         0.00000000
  eigenvalues    EBANDS =     -1799.29457551
  atomic energy  EATOM  =     40197.80149763
  Solvation  Ediel_sol  =         0.00000000
  ---------------------------------------------------
  free energy    TOTEN  =      -538.83596179 eV

  energy without entropy =     -538.83596179  energy(sigma->0) =     -538.83596179


--------------------------------------------------------------------------------------------------------




--------------------------------------- Iteration      1(   9)  ---------------------------------------


    POTLOK:  cpu time    0.4140: real time    0.4244
    SETDIJ:  cpu time    0.0242: real time    0.0242
    EDDIAG:  cpu time    4.8076: real time    4.8087
  RMM-DIIS:  cpu time   19.8670: real time   19.8848
    ORTHCH:  cpu time    1.3109: real time    1.3113
 BZINTS: Fermi energy: -0.636184;542.000000 electrons
         Band energy:***********;  BLOECHL correction: -0.014610
       DOS:  cpu time    0.0422: real time    0.0422
    CHARGE:  cpu time    0.9333: real time    0.9336
    MIXING:  cpu time    0.0073: real time    0.0073
    --------------------------------------------
      LOOP:  cpu time   27.4065: real time   27.4366

 eigenvalue-minimisations  :  8252
 total energy-change (2. order) :-0.1829945E-02  (-0.3752826E-03)
 number of electron     542.0000174 magnetization     137.3504861
 augmentation part      269.8315346 magnetization     109.8299627

 DIPCOR: dipole corrections for dipol
 direction  3 min pos   247,
 dipolmoment           0.000000      0.000000      0.302643 electrons x Angstroem
 Tr[quadrupol]     -8923.916126

 energy correction for charged system         0.000000 eV
 dipol+quadrupol energy correction           -0.004229 eV
 added-field ion interaction          6.644086 eV  (added to PSCEN)


 Broyden mixing:
  rms(total) = 0.45352E-01    rms(broyden)= 0.45351E-01
  rms(prec ) = 0.50575E-01
  weight for this iteration     100.00

 eigenvalues of (default mixing * dielectric matrix)
  average eigenvalue GAMMA=   0.4065
  1.0231  1.0231  0.5414  0.0610  0.1903  0.1624  0.1354  0.1152

 Free energy of the ion-electron system (eV)
  ---------------------------------------------------
  alpha Z        PSCENC =      1567.97057843
  Ewald energy   TEWEN  =    149783.11082118
  -Hartree energ DENC   =   -190113.07857545
  -exchange      EXHF   =         0.00000000
  -V(xc)+E(xc)   XCENC  =       415.97633368
  PAW double counting   =     47558.56110582   -48147.31944296
  entropy T*S    EENTRO =         0.00000000
  eigenvalues    EBANDS =     -1801.86011008
  atomic energy  EATOM  =     40197.80149763
  Solvation  Ediel_sol  =         0.00000000
  ---------------------------------------------------
  free energy    TOTEN  =      -538.83779174 eV

  energy without entropy =     -538.83779174  energy(sigma->0) =     -538.83779174


--------------------------------------------------------------------------------------------------------




--------------------------------------- Iteration      1(  10)  ---------------------------------------


    POTLOK:  cpu time    0.4272: real time    0.4279
    SETDIJ:  cpu time    0.0241: real time    0.0241
    EDDIAG:  cpu time    4.8047: real time    4.8059
  RMM-DIIS:  cpu time   18.4233: real time   18.4365
    ORTHCH:  cpu time    1.3114: real time    1.3116
 BZINTS: Fermi energy: -0.634380;542.000000 electrons
         Band energy:***********;  BLOECHL correction: -0.014622
       DOS:  cpu time    0.0433: real time    0.0433
    CHARGE:  cpu time    0.9320: real time    0.9321
    MIXING:  cpu time    0.0075: real time    0.0074
    --------------------------------------------
      LOOP:  cpu time   25.9735: real time   25.9888

 eigenvalue-minimisations  :  7657
 total energy-change (2. order) :-0.2937492E-04  (-0.1799720E-03)
 number of electron     542.0000174 magnetization     137.3645952
 augmentation part      269.8387464 magnetization     109.8083828

 DIPCOR: dipole corrections for dipol
 direction  3 min pos   246,
 dipolmoment           0.000000      0.000000      0.302584 electrons x Angstroem
 Tr[quadrupol]     -8923.863788

 energy correction for charged system         0.000000 eV
 dipol+quadrupol energy correction           -0.004228 eV
 added-field ion interaction          5.645046 eV  (added to PSCEN)


 Broyden mixing:
  rms(total) = 0.15144E-01    rms(broyden)= 0.15142E-01
  rms(prec ) = 0.16212E-01
  weight for this iteration     100.00

 eigenvalues of (default mixing * dielectric matrix)
  average eigenvalue GAMMA=   0.4443
  1.1410  1.1410  0.5333  0.5333  0.0610  0.1895  0.1530  0.1332  0.1136

 Free energy of the ion-electron system (eV)
  ---------------------------------------------------
  alpha Z        PSCENC =      1566.97154020
  Ewald energy   TEWEN  =    149783.11082118
  -Hartree energ DENC   =   -190112.70519625
  -exchange      EXHF   =         0.00000000
  -V(xc)+E(xc)   XCENC  =       415.92808721
  PAW double counting   =     47558.14923763   -48146.90021709
  entropy T*S    EENTRO =         0.00000000
  eigenvalues    EBANDS =     -1801.19359164
  atomic energy  EATOM  =     40197.80149763
  Solvation  Ediel_sol  =         0.00000000
  ---------------------------------------------------
  free energy    TOTEN  =      -538.83782111 eV

  energy without entropy =     -538.83782111  energy(sigma->0) =     -538.83782111


--------------------------------------------------------------------------------------------------------




--------------------------------------- Iteration      1(  11)  ---------------------------------------


    POTLOK:  cpu time    0.4143: real time    0.4271
    SETDIJ:  cpu time    0.0241: real time    0.0242
    EDDIAG:  cpu time    4.8065: real time    4.8079
  RMM-DIIS:  cpu time   20.3009: real time   20.3158
    ORTHCH:  cpu time    1.3128: real time    1.3130
 BZINTS: Fermi energy: -0.634401;542.000000 electrons
         Band energy:***********;  BLOECHL correction: -0.014603
       DOS:  cpu time    0.0432: real time    0.0432
    CHARGE:  cpu time    0.9398: real time    0.9400
    MIXING:  cpu time    0.0079: real time    0.0079
    --------------------------------------------
      LOOP:  cpu time   27.8496: real time   27.8791

 eigenvalue-minimisations  :  8445
 total energy-change (2. order) :-0.1219993E-02  (-0.1424225E-03)
 number of electron     542.0000174 magnetization     137.3855739
 augmentation part      269.8415288 magnetization     109.8221479

 DIPCOR: dipole corrections for dipol
 direction  3 min pos   246,
 dipolmoment           0.000000      0.000000      0.302087 electrons x Angstroem
 Tr[quadrupol]     -8923.866100

 energy correction for charged system         0.000000 eV
 dipol+quadrupol energy correction           -0.004214 eV
 added-field ion interaction          5.635771 eV  (added to PSCEN)


 Broyden mixing:
  rms(total) = 0.26367E-01    rms(broyden)= 0.26366E-01
  rms(prec ) = 0.29488E-01
  weight for this iteration     100.00

 eigenvalues of (default mixing * dielectric matrix)
  average eigenvalue GAMMA=   0.4743
  1.3024  1.3024  0.6654  0.6654  0.0610  0.1823  0.1687  0.1490  0.1334  0.1132

 Free energy of the ion-electron system (eV)
  ---------------------------------------------------
  alpha Z        PSCENC =      1566.96227882
  Ewald energy   TEWEN  =    149783.11082118
  -Hartree energ DENC   =   -190112.73583464
  -exchange      EXHF   =         0.00000000
  -V(xc)+E(xc)   XCENC  =       415.90412659
  PAW double counting   =     47557.55648273   -48146.29802516
  entropy T*S    EENTRO =         0.00000000
  eigenvalues    EBANDS =     -1801.14038826
  atomic energy  EATOM  =     40197.80149763
  Solvation  Ediel_sol  =         0.00000000
  ---------------------------------------------------
  free energy    TOTEN  =      -538.83904111 eV

  energy without entropy =     -538.83904111  energy(sigma->0) =     -538.83904111


--------------------------------------------------------------------------------------------------------




--------------------------------------- Iteration      1(  12)  ---------------------------------------


    POTLOK:  cpu time    0.4172: real time    0.4294
    SETDIJ:  cpu time    0.0242: real time    0.0242
    EDDIAG:  cpu time    4.8160: real time    4.8173
  RMM-DIIS:  cpu time   19.4355: real time   19.4517
    ORTHCH:  cpu time    1.2998: real time    1.3000
 BZINTS: Fermi energy: -0.632585;542.000000 electrons
         Band energy:***********;  BLOECHL correction: -0.014567
       DOS:  cpu time    0.0436: real time    0.0436
    CHARGE:  cpu time    0.9400: real time    0.9402
    MIXING:  cpu time    0.0080: real time    0.0080
    --------------------------------------------
      LOOP:  cpu time   26.9843: real time   27.0144

 eigenvalue-minimisations  :  8071
 total energy-change (2. order) :-0.8721987E-03  (-0.7896378E-04)
 number of electron     542.0000174 magnetization     137.3944599
 augmentation part      269.8464274 magnetization     109.8176036

 DIPCOR: dipole corrections for dipol
 direction  3 min pos   245,
 dipolmoment           0.000000      0.000000      0.301360 electrons x Angstroem
 Tr[quadrupol]     -8923.826741

 energy correction for charged system         0.000000 eV
 dipol+quadrupol energy correction           -0.004194 eV
 added-field ion interaction          4.628501 eV  (added to PSCEN)


 Broyden mixing:
  rms(total) = 0.16056E-01    rms(broyden)= 0.16055E-01
  rms(prec ) = 0.18901E-01
  weight for this iteration     100.00

 eigenvalues of (default mixing * dielectric matrix)
  average eigenvalue GAMMA=   0.4710
  1.3506  1.3506  0.6845  0.6845  0.3019  0.0610  0.2030  0.1617  0.1135  0.1305
  0.1389

 Free energy of the ion-electron system (eV)
  ---------------------------------------------------
  alpha Z        PSCENC =      1565.95502975
  Ewald energy   TEWEN  =    149783.11082118
  -Hartree energ DENC   =   -190112.68567936
  -exchange      EXHF   =         0.00000000
  -V(xc)+E(xc)   XCENC  =       415.87573331
  PAW double counting   =     47556.60528788   -48145.33211516
  entropy T*S    EENTRO =         0.00000000
  eigenvalues    EBANDS =     -1800.17048855
  atomic energy  EATOM  =     40197.80149763
  Solvation  Ediel_sol  =         0.00000000
  ---------------------------------------------------
  free energy    TOTEN  =      -538.83991331 eV

  energy without entropy =     -538.83991331  energy(sigma->0) =     -538.83991331


--------------------------------------------------------------------------------------------------------




--------------------------------------- Iteration      1(  13)  ---------------------------------------


    POTLOK:  cpu time    0.4162: real time    0.4269
    SETDIJ:  cpu time    0.0242: real time    0.0242
    EDDIAG:  cpu time    4.8274: real time    4.8287
  RMM-DIIS:  cpu time   20.4879: real time   20.5038
    ORTHCH:  cpu time    1.2999: real time    1.3001
 BZINTS: Fermi energy: -0.628886;542.000000 electrons
         Band energy:***********;  BLOECHL correction: -0.014616
       DOS:  cpu time    0.0436: real time    0.0437
    CHARGE:  cpu time    0.9353: real time    0.9355
    MIXING:  cpu time    0.0081: real time    0.0081
    --------------------------------------------
      LOOP:  cpu time   28.0427: real time   28.0708

 eigenvalue-minimisations  :  8544
 total energy-change (2. order) :-0.4419583E-03  (-0.4477702E-04)
 number of electron     542.0000174 magnetization     137.4147624
 augmentation part      269.8469084 magnetization     109.8313363

 DIPCOR: dipole corrections for dipol
 direction  3 min pos   243,
 dipolmoment           0.000000      0.000000      0.301750 electrons x Angstroem
 Tr[quadrupol]     -8923.745744

 energy correction for charged system         0.000000 eV
 dipol+quadrupol energy correction           -0.004204 eV
 added-field ion interaction          2.644502 eV  (added to PSCEN)


 Broyden mixing:
  rms(total) = 0.13107E-01    rms(broyden)= 0.13106E-01
  rms(prec ) = 0.15432E-01
  weight for this iteration     100.00

 eigenvalues of (default mixing * dielectric matrix)
  average eigenvalue GAMMA=   0.5276
  2.0379  1.0393  1.0393  0.6260  0.6260  0.0610  0.1939  0.1740  0.1561  0.1134
  0.1343  0.1296

 Free energy of the ion-electron system (eV)
  ---------------------------------------------------
  alpha Z        PSCENC =      1563.97101903
  Ewald energy   TEWEN  =    149783.11082118
  -Hartree energ DENC   =   -190112.65301695
  -exchange      EXHF   =         0.00000000
  -V(xc)+E(xc)   XCENC  =       415.86823078
  PAW double counting   =     47556.28034996   -48145.00587068
  entropy T*S    EENTRO =         0.00000000
  eigenvalues    EBANDS =     -1798.21338622
  atomic energy  EATOM  =     40197.80149763
  Solvation  Ediel_sol  =         0.00000000
  ---------------------------------------------------
  free energy    TOTEN  =      -538.84035526 eV

  energy without entropy =     -538.84035526  energy(sigma->0) =     -538.84035526


--------------------------------------------------------------------------------------------------------




--------------------------------------- Iteration      1(  14)  ---------------------------------------


    POTLOK:  cpu time    0.4170: real time    0.4272
    SETDIJ:  cpu time    0.0243: real time    0.0243
    EDDIAG:  cpu time    4.8198: real time    4.8211
  RMM-DIIS:  cpu time   21.1192: real time   21.1329
    ORTHCH:  cpu time    1.3017: real time    1.3019
 BZINTS: Fermi energy: -0.630200;542.000000 electrons
         Band energy:***********;  BLOECHL correction: -0.014594
       DOS:  cpu time    0.0435: real time    0.0435
    CHARGE:  cpu time    0.9358: real time    0.9359
    MIXING:  cpu time    0.0084: real time    0.0084
    --------------------------------------------
      LOOP:  cpu time   28.6706: real time   28.6953

 eigenvalue-minimisations  :  8756
 total energy-change (2. order) :-0.8309664E-03  (-0.3016396E-04)
 number of electron     542.0000174 magnetization     137.4238093
 augmentation part      269.8446133 magnetization     109.8372538

 DIPCOR: dipole corrections for dipol
 direction  3 min pos   244,
 dipolmoment           0.000000      0.000000      0.303008 electrons x Angstroem
 Tr[quadrupol]     -8923.793832

 energy correction for charged system         0.000000 eV
 dipol+quadrupol energy correction           -0.004240 eV
 added-field ion interaction          3.654669 eV  (added to PSCEN)


 Broyden mixing:
  rms(total) = 0.10023E-01    rms(broyden)= 0.10023E-01
  rms(prec ) = 0.10937E-01
  weight for this iteration     100.00

 eigenvalues of (default mixing * dielectric matrix)
  average eigenvalue GAMMA=   0.5316
  2.3674  1.0613  1.0613  0.6174  0.6174  0.0610  0.2180  0.2180  0.1670  0.1473
  0.1133  0.1331  0.1275

 Free energy of the ion-electron system (eV)
  ---------------------------------------------------
  alpha Z        PSCENC =      1564.98115143
  Ewald energy   TEWEN  =    149783.11082118
  -Hartree energ DENC   =   -190112.87251772
  -exchange      EXHF   =         0.00000000
  -V(xc)+E(xc)   XCENC  =       415.86054266
  PAW double counting   =     47555.70863495   -48144.43860846
  entropy T*S    EENTRO =         0.00000000
  eigenvalues    EBANDS =     -1798.99270790
  atomic energy  EATOM  =     40197.80149763
  Solvation  Ediel_sol  =         0.00000000
  ---------------------------------------------------
  free energy    TOTEN  =      -538.84118623 eV

  energy without entropy =     -538.84118623  energy(sigma->0) =     -538.84118623


--------------------------------------------------------------------------------------------------------




--------------------------------------- Iteration      1(  15)  ---------------------------------------


    POTLOK:  cpu time    0.4164: real time    0.4291
    SETDIJ:  cpu time    0.0242: real time    0.0241
    EDDIAG:  cpu time    4.8168: real time    4.8181
  RMM-DIIS:  cpu time   20.0133: real time   20.0236
    ORTHCH:  cpu time    1.3036: real time    1.3039
 BZINTS: Fermi energy: -0.630163;542.000000 electrons
         Band energy:***********;  BLOECHL correction: -0.014600
       DOS:  cpu time    0.0435: real time    0.0434
    CHARGE:  cpu time    0.9346: real time    0.9402
    MIXING:  cpu time    0.0087: real time    0.0086
    --------------------------------------------
      LOOP:  cpu time   27.5603: real time   27.5911

 eigenvalue-minimisations  :  8279
 total energy-change (2. order) :-0.2882870E-03  (-0.1496581E-04)
 number of electron     542.0000174 magnetization     137.4436013
 augmentation part      269.8439935 magnetization     109.8557151

 DIPCOR: dipole corrections for dipol
 direction  3 min pos   244,
 dipolmoment           0.000000      0.000000      0.303569 electrons x Angstroem
 Tr[quadrupol]     -8923.795287

 energy correction for charged system         0.000000 eV
 dipol+quadrupol energy correction           -0.004255 eV
 added-field ion interaction          3.661441 eV  (added to PSCEN)


 Broyden mixing:
  rms(total) = 0.65604E-02    rms(broyden)= 0.65599E-02
  rms(prec ) = 0.70725E-02
  weight for this iteration     100.00

 eigenvalues of (default mixing * dielectric matrix)
  average eigenvalue GAMMA=   0.5875
  3.0079  1.1307  1.1307  0.6546  0.6546  0.5243  0.0610  0.2034  0.1783  0.1594
  0.1472  0.1134  0.1319  0.1273

 Free energy of the ion-electron system (eV)
  ---------------------------------------------------
  alpha Z        PSCENC =      1564.98790770
  Ewald energy   TEWEN  =    149783.11082118
  -Hartree energ DENC   =   -190112.91837865
  -exchange      EXHF   =         0.00000000
  -V(xc)+E(xc)   XCENC  =       415.85830206
  PAW double counting   =     47555.54002264   -48144.27055269
  entropy T*S    EENTRO =         0.00000000
  eigenvalues    EBANDS =     -1798.95109441
  atomic energy  EATOM  =     40197.80149763
  Solvation  Ediel_sol  =         0.00000000
  ---------------------------------------------------
  free energy    TOTEN  =      -538.84147452 eV

  energy without entropy =     -538.84147452  energy(sigma->0) =     -538.84147452


--------------------------------------------------------------------------------------------------------




--------------------------------------- Iteration      1(  16)  ---------------------------------------


    POTLOK:  cpu time    0.4146: real time    0.4263
    SETDIJ:  cpu time    0.0243: real time    0.0243
    EDDIAG:  cpu time    4.8121: real time    4.8132
  RMM-DIIS:  cpu time   21.7931: real time   21.8017
    ORTHCH:  cpu time    1.3001: real time    1.3003
 BZINTS: Fermi energy: -0.628092;542.000000 electrons
         Band energy:***********;  BLOECHL correction: -0.014599
       DOS:  cpu time    0.0434: real time    0.0434
    CHARGE:  cpu time    0.9395: real time    0.9449
    MIXING:  cpu time    0.0091: real time    0.0091
    --------------------------------------------
      LOOP:  cpu time   29.3362: real time   29.3632

 eigenvalue-minimisations  :  9058
 total energy-change (2. order) :-0.6755403E-03  (-0.9512087E-05)
 number of electron     542.0000174 magnetization     137.4536637
 augmentation part      269.8436677 magnetization     109.8583510

 DIPCOR: dipole corrections for dipol
 direction  3 min pos   243,
 dipolmoment           0.000000      0.000000      0.303917 electrons x Angstroem
 Tr[quadrupol]     -8923.757833

[...]
   -.959E+00 0.385E+00 0.745E+03   0.993E+00 -.322E+00 -.745E+03   -.276E-01 -.316E-01 -.451E+00   0.630E-03 0.217E-03 -.756E-02
   -.405E+02 0.102E+02 -.173E+04   0.423E+02 -.962E+01 0.173E+04   -.179E+01 -.629E+00 0.444E+01   -.392E-03 0.404E-03 -.185E-02
   0.999E+00 -.127E+00 0.192E+04   -.110E+01 0.231E+00 -.192E+04   0.816E-01 -.573E-01 -.327E+01   0.843E-03 -.605E-03 -.296E-02
   0.723E+01 -.119E+02 -.447E+03   -.733E+01 0.117E+02 0.447E+03   0.824E-01 0.238E+00 0.671E+00   0.360E-03 -.559E-03 -.693E-02
   0.400E+01 0.434E+01 0.756E+03   -.402E+01 -.442E+01 -.756E+03   0.531E-01 -.317E-01 -.317E+00   0.142E-03 -.120E-03 -.816E-02
   0.108E+03 0.353E+02 -.163E+04   -.110E+03 -.358E+02 0.163E+04   0.202E+01 0.507E+00 0.225E+01   0.183E-03 -.651E-03 -.216E-02
   -.475E+00 -.108E+00 0.192E+04   0.559E+00 0.142E+00 -.192E+04   -.533E-01 -.302E-01 -.327E+01   -.106E-02 -.106E-03 -.273E-02
   -.717E+00 -.118E+02 -.420E+03   0.110E+01 0.118E+02 0.419E+03   -.398E+00 0.617E-01 0.137E+01   -.242E-03 0.180E-03 -.719E-02
   -.623E+01 0.638E+01 0.754E+03   0.628E+01 -.649E+01 -.754E+03   -.300E-01 0.208E-01 -.169E+00   -.782E-03 0.228E-04 -.772E-02
   -.635E+02 -.731E+02 -.165E+04   0.640E+02 0.739E+02 0.165E+04   -.586E+00 -.693E+00 0.141E+01   -.370E-03 -.543E-03 -.169E-02
   -.111E+01 -.418E+00 0.192E+04   0.113E+01 0.418E+00 -.192E+04   -.260E-01 -.741E-02 -.324E+01   -.770E-03 -.369E-03 -.274E-02
   -.816E+01 -.174E+02 -.456E+03   0.835E+01 0.169E+02 0.455E+03   -.172E+00 0.465E+00 0.998E+00   -.860E-04 0.403E-03 -.664E-02
   -.133E+01 0.718E+00 0.749E+03   0.145E+01 -.696E+00 -.749E+03   -.190E+00 -.545E-01 -.287E+00   0.501E-05 -.121E-03 -.718E-02
   0.212E+02 0.877E+01 -.164E+04   -.202E+02 -.871E+01 0.164E+04   -.964E+00 -.897E-01 0.349E+01   0.138E-03 -.445E-03 -.171E-02
   0.587E+00 -.239E+00 0.192E+04   -.591E+00 0.319E+00 -.192E+04   0.185E-01 -.243E-01 -.331E+01   0.949E-03 -.749E-03 -.288E-02
   -.582E+00 -.397E+01 -.448E+03   0.754E+00 0.408E+01 0.447E+03   -.165E+00 -.114E+00 0.107E+01   0.145E-04 -.279E-03 -.653E-02
   0.222E+01 0.260E+01 0.748E+03   -.220E+01 -.269E+01 -.748E+03   0.339E-01 0.383E-01 -.451E+00   0.601E-03 -.213E-03 -.760E-02
   -.790E+02 0.538E+02 -.169E+04   0.804E+02 -.550E+02 0.169E+04   -.141E+01 0.113E+01 0.257E+01   0.177E-03 -.454E-03 -.210E-02
   0.529E+00 -.110E+01 0.192E+04   -.586E+00 0.113E+01 -.192E+04   0.770E-01 -.171E-01 -.326E+01   0.841E-03 -.922E-03 -.264E-02
   0.263E+01 -.165E+01 -.480E+03   -.290E+01 0.192E+01 0.480E+03   0.283E+00 -.256E+00 0.307E+00   0.589E-03 -.318E-03 -.748E-02
   0.399E+01 -.643E+01 0.754E+03   -.414E+01 0.647E+01 -.754E+03   0.955E-01 -.458E-01 -.295E+00   0.118E-03 -.169E-03 -.778E-02
   0.437E+02 -.155E+03 -.170E+04   -.433E+02 0.156E+03 0.169E+04   -.361E+00 -.138E+01 0.154E+01   0.318E-03 -.354E-03 -.224E-02
   -.957E+00 -.104E+01 0.192E+04   0.964E+00 0.102E+01 -.192E+04   -.304E-01 0.120E-01 -.322E+01   -.107E-02 -.792E-04 -.264E-02
   -.687E+01 -.807E+01 -.445E+03   0.666E+01 0.850E+01 0.444E+03   0.223E+00 -.428E+00 0.137E+01   0.582E-04 -.739E-04 -.703E-02
   -.880E+01 -.261E+01 0.747E+03   0.897E+01 0.265E+01 -.747E+03   -.116E+00 -.124E-01 -.406E+00   -.988E-03 0.167E-03 -.697E-02
   -.376E+02 -.488E+02 -.170E+04   0.371E+02 0.492E+02 0.170E+04   0.511E+00 -.401E+00 0.239E+01   0.197E-03 0.617E-04 -.275E-02
   -.406E+00 -.490E+00 0.192E+04   0.412E+00 0.458E+00 -.192E+04   -.155E-01 -.712E-02 -.338E+01   -.660E-03 0.315E-04 -.264E-02
   0.344E+01 0.254E+01 -.483E+03   -.306E+01 -.247E+01 0.483E+03   -.378E+00 -.938E-01 0.887E-01   -.502E-03 0.923E-04 -.686E-02
   0.371E+01 -.393E+01 0.744E+03   -.373E+01 0.406E+01 -.743E+03   -.657E-01 -.199E-01 -.351E+00   0.984E-05 -.148E-03 -.663E-02
   0.334E+02 -.107E+03 -.170E+04   -.333E+02 0.109E+03 0.170E+04   -.168E+00 -.164E+01 0.267E+01   -.506E-03 -.742E-03 -.215E-02
   0.787E+00 -.674E+00 0.192E+04   -.785E+00 0.553E+00 -.192E+04   0.676E-02 0.693E-01 -.326E+01   0.846E-03 -.789E-03 -.262E-02
   0.270E+00 0.212E+01 -.446E+03   -.500E+00 -.214E+01 0.446E+03   0.235E+00 0.156E-01 0.759E+00   -.115E-03 -.125E-03 -.750E-02
   0.170E+01 -.273E+01 0.749E+03   -.174E+01 0.272E+01 -.749E+03   0.288E-01 -.510E-02 -.426E+00   0.902E-03 -.384E-03 -.752E-02
   -.206E+02 -.123E+02 -.170E+04   0.208E+02 0.130E+02 0.170E+04   -.175E+00 -.765E+00 0.475E+01   -.515E-04 -.821E-03 -.244E-02
   0.566E+02 0.480E+02 -.171E+04   -.583E+02 -.489E+02 0.174E+04   0.162E+01 0.907E+00 -.258E+02   0.186E-03 0.553E-03 0.877E-03
   -.422E+02 0.349E+02 -.171E+04   0.429E+02 -.335E+02 0.173E+04   -.690E+00 -.140E+01 -.256E+02   0.420E-03 0.146E-02 0.132E-02
   -.244E+02 -.224E+02 -.171E+04   0.259E+02 0.232E+02 0.174E+04   -.144E+01 -.760E+00 -.255E+02   0.637E-04 -.108E-03 0.967E-03
   0.418E+02 -.469E+02 -.173E+04   -.429E+02 0.459E+02 0.175E+04   0.107E+01 0.966E+00 -.269E+02   -.347E-03 -.899E-03 0.106E-02
   -.360E+02 -.213E+02 -.168E+04   0.380E+02 0.226E+02 0.170E+04   -.196E+01 -.133E+01 -.247E+02   0.130E-03 -.605E-03 0.510E-03
 -----------------------------------------------------------------------------------------------
   0.291E+01 0.342E+01 0.131E+03   0.185E-12 0.298E-12 0.136E-11   -.290E+01 -.342E+01 -.130E+03   0.644E-03 0.318E-03 -.298E+00
 
 
 POSITION                                       TOTAL-FORCE (eV/Angst)
 -----------------------------------------------------------------------------------
      1.40594      1.52230      2.00000        -0.016975      0.035127      0.294984
      1.42204      1.51270      6.00442        -0.009696      0.004027     -0.003919
      2.23340      0.35210      4.02685         0.051183      0.005006     -0.403524
      2.23474      0.31564      7.91728         0.007863     -0.018184     -0.012833
      3.88832      1.52230      2.00000         0.029648      0.024873      0.268107
      3.91154      1.53193      6.00461         0.003711      0.011432      0.014243
      4.71578      0.35210      4.02685         0.087550     -0.087401     -0.262297
      4.76373      0.42209      8.00839        -0.005285      0.001783     -0.016520
      6.37069      1.52230      2.00000        -0.006142      0.027490      0.303254
      6.38911      1.51026      6.02955        -0.013668     -0.001826      0.005257
      7.19815      0.35210      4.02685        -0.131737      0.047810     -0.318611
      7.19942      0.25110      7.96073        -0.015654      0.030943      0.050993
      8.85307      1.52230      2.00000        -0.012805      0.018415      0.345115
      8.86802      1.50739      5.99746         0.003883      0.004829      0.012793
      9.68053      0.35210      4.02685         0.038069     -0.055372     -0.370746
      9.72850      0.30701      7.98017         0.046343     -0.012460      0.021646
      2.23340      3.86271      2.00000        -0.015242     -0.029776      0.320554
      2.22430      3.85573      6.01376        -0.018319     -0.006825     -0.007956
      3.06086      2.69251      4.02685        -0.011526      0.052954     -0.316623
      3.05859      2.69618      8.00592         0.003750      0.008317     -0.020721
      4.71578      3.86271      2.00000        -0.012540     -0.031318      0.318227
      4.70185      3.88987      6.01109        -0.007719     -0.013338     -0.001077
      5.54324      2.69251      4.02685         0.020646     -0.000909     -0.152511
      5.56566      2.79769      8.01953         0.026301      0.025337      0.012041
      7.19815      3.86271      2.00000        -0.005240     -0.008243      0.321909
      7.18280      3.85615      6.03961        -0.006565      0.009340      0.019717
      8.02561      2.69251      4.02685        -0.045021      0.073569     -0.245411
      8.08155      2.65447      8.02876        -0.000134     -0.008853      0.001698
      9.68053      3.86271      2.00000         0.035611     -0.016343      0.312262
      9.66818      3.85092      6.01245         0.010337      0.002228      0.011391
     10.50799      2.69251      4.02685         0.007093      0.030545     -0.391595
     10.54965      2.66137      7.92359        -0.010565     -0.005316     -0.016581
      3.06086      6.20311      2.00000        -0.018731      0.046569      0.336512
      3.05685      6.18658      5.98393        -0.014720     -0.003649      0.006048
      3.88832      5.03291      4.02685         0.034899     -0.115988     -0.386500
      3.75116      5.02770      7.94501         0.009428      0.026649      0.019138
      5.54324      6.20311      2.00000         0.029455      0.004706      0.244289
      5.53475      6.19848      5.94961        -0.008112      0.024012      0.071796
      6.37069      5.03291      4.02685         0.022014     -0.081718     -0.229513
      6.31050      5.25557      8.10036        -0.045107      0.110885     -0.016861
      8.02561      6.20311      2.00000         0.000115     -0.007486      0.304689
      8.01311      6.16745      6.01077         0.021328     -0.002006     -0.006420
      8.85307      5.03291      4.02685        -0.070840     -0.031548     -0.261241
      8.76288      4.98729      7.98129        -0.025040     -0.026412      0.015773
     10.50799      6.20311      2.00000         0.015700      0.054643      0.261536
     10.49664      6.19358      5.99247         0.006528      0.000553      0.018482
     11.33544      5.03291      4.02685         0.053158     -0.054950     -0.374044
     11.29898      4.98904      7.99801         0.000839     -0.010112      0.001497
      3.88832      8.54352      2.00000         0.021359      0.010715      0.280895
      3.90166      8.52980      6.00988         0.009585      0.011267     -0.018426
      4.71578      7.37332      4.02685        -0.059352     -0.011735     -0.391474
      4.84137      7.36545      8.01563         0.058693     -0.079027      0.004709
      6.37069      8.54352      2.00000        -0.025134     -0.010168      0.312224
      6.35183      8.56182      5.96352         0.013268      0.006496     -0.016424
      7.19815      7.37332      4.02685         0.055177      0.027103     -0.292033
      7.20201      7.47823      7.86141        -0.008414     -0.021703     -0.006740
      8.85307      8.54352      2.00000        -0.010865     -0.038578      0.341716
      8.84329      8.53334      6.03824        -0.001424     -0.013248      0.024427
      9.68053      7.37332      4.02685        -0.089732      0.108675     -0.258401
      9.70115      7.34329      7.99760        -0.009434     -0.022864      0.021988
     11.33544      8.54352      2.00000         0.009688     -0.052255      0.323646
     11.33067      8.53347      5.98755         0.006990     -0.005728      0.002346
     12.16290      7.37332      4.02685        -0.014804     -0.009886     -0.542160
     12.18527      7.37043      7.85860         0.002003     -0.002582      0.002784
      4.32550      1.87099      9.09591         0.015928      0.021236      0.007975
      8.44571      1.09558      9.06170         0.011151      0.000410      0.043077
     10.02874      5.84301      9.08119         0.007753      0.018107      0.034518
      4.83669      5.89698      9.13148        -0.043624     -0.001067      0.029986
      6.88159      3.69240      9.00994         0.013120      0.012818     -0.003083
 -----------------------------------------------------------------------------------
    total drift:                                0.011559     -0.000283     -0.005408


--------------------------------------------------------------------------------------------------------



  FREE ENERGIE OF THE ION-ELECTRON SYSTEM (eV)
  ---------------------------------------------------
  free  energy   TOTEN  =      -552.20840536 eV

  energy  without entropy=     -552.20840536  energy(sigma->0) =     -552.20840536
 


--------------------------------------------------------------------------------------------------------


    POTLOK:  cpu time    0.4388: real time    0.4390


--------------------------------------------------------------------------------------------------------


 stress matrix after NEB project (eV)
    -39.03340      5.26313      0.09844
      5.26313    -42.19082      0.24865
      0.09844      0.24865     -9.15111
  FORCES: max atom, RMS     0.120890    0.028859
  FORCE total and by dimension    0.239719    0.110885
  Stress total and by dimension   58.676730   42.190820
 writing wavefunctions
     LOOP+:  cpu time  957.6677: real time 1023.3520
    4ORBIT:  cpu time    0.0000: real time    0.0000
 


 total charge     
 
# of ion       s       p       d       tot
------------------------------------------
    1        0.466   0.375   6.196   7.037
    2        0.483   0.535   6.262   7.280
    3        0.478   0.516   6.246   7.240
    4        0.480   0.416   6.206   7.102
    5        0.466   0.377   6.194   7.037
    6        0.476   0.520   6.238   7.235
    7        0.472   0.510   6.234   7.216
    8        0.472   0.499   6.237   7.209
    9        0.466   0.376   6.198   7.040
   10        0.474   0.521   6.226   7.221
   11        0.474   0.511   6.239   7.223
   12        0.472   0.507   6.267   7.246
   13        0.466   0.376   6.196   7.038
   14        0.478   0.520   6.242   7.241
   15        0.473   0.512   6.242   7.227
   16        0.477   0.506   6.262   7.245
   17        0.466   0.376   6.197   7.039
   18        0.486   0.540   6.234   7.260
   19        0.473   0.511   6.237   7.221
   20        0.473   0.505   6.248   7.225
   21        0.466   0.377   6.196   7.039
   22        0.481   0.528   6.240   7.249
   23        0.472   0.508   6.226   7.206
   24        0.451   0.571   6.233   7.255
   25        0.465   0.376   6.197   7.038
   26        0.473   0.512   6.220   7.205
   27        0.471   0.509   6.235   7.215
   28        0.457   0.580   6.283   7.319
   29        0.466   0.376   6.196   7.038
   30        0.478   0.526   6.244   7.248
   31        0.473   0.512   6.236   7.221
   32        0.471   0.406   6.227   7.104
   33        0.466   0.374   6.199   7.039
   34        0.490   0.541   6.269   7.300
   35        0.477   0.516   6.242   7.235
   36        0.484   0.528   6.295   7.307
   37        0.466   0.376   6.198   7.040
   38        0.489   0.534   6.238   7.261
   39        0.475   0.514   6.240   7.229
   40        0.449   0.571   6.235   7.256
   41        0.466   0.377   6.197   7.040
   42        0.481   0.532   6.250   7.263
   43        0.474   0.511   6.237   7.223
   44        0.451   0.493   6.242   7.186
   45        0.467   0.376   6.194   7.037
   46        0.477   0.523   6.240   7.239
   47        0.473   0.513   6.241   7.227
   48        0.472   0.500   6.249   7.222
   49        0.466   0.376   6.196   7.038
   50        0.486   0.537   6.232   7.255
   51        0.478   0.517   6.247   7.241
   52        0.478   0.528   6.237   7.243
   53        0.466   0.376   6.198   7.040
   54        0.493   0.549   6.272   7.314
   55        0.476   0.514   6.229   7.219
   56        0.502   0.456   6.192   7.149
   57        0.465   0.376   6.198   7.039
   58        0.481   0.530   6.231   7.242
   59        0.472   0.512   6.236   7.220
   60        0.472   0.496   6.237   7.205
   61        0.466   0.375   6.197   7.038
   62        0.486   0.538   6.262   7.285
   63        0.475   0.514   6.241   7.231
   64        0.465   0.399   6.227   7.091
   65        1.581   3.373   0.000   4.953
   66        1.580   3.371   0.000   4.951
   67        1.579   3.372   0.000   4.951
   68        1.582   3.373   0.000   4.956
   69        1.579   3.373   0.000   4.952
--------------------------------------------------
tot         38.180  47.523 398.735 484.438
 


 magnetization (x)
 
# of ion       s       p       d       tot
------------------------------------------
    1       -0.005  -0.016   2.677   2.656
    2       -0.015  -0.053   2.365   2.297
    3       -0.014  -0.056   2.432   2.361
    4        0.011   0.001   2.570   2.582
    5       -0.004  -0.014   2.687   2.669
    6       -0.013  -0.047   2.526   2.467
    7       -0.015  -0.055   2.470   2.400
    8        0.009   0.007   2.379   2.396
    9       -0.004  -0.015   2.660   2.640
   10       -0.007  -0.042   2.341   2.292
   11       -0.014  -0.058   2.467   2.394
   12       -0.002  -0.007   2.213   2.204
   13       -0.005  -0.016   2.684   2.663
   14       -0.013  -0.052   2.494   2.429
   15       -0.016  -0.058   2.474   2.399
   16        0.007   0.006   2.213   2.226
   17       -0.005  -0.017   2.675   2.653
   18       -0.010  -0.053   2.344   2.281
   19       -0.016  -0.056   2.480   2.408
   20        0.002  -0.012   2.402   2.392
   21       -0.005  -0.015   2.663   2.643
   22       -0.009  -0.033   2.212   2.170
   23       -0.014  -0.053   2.496   2.428
   24       -0.029  -0.047  -2.257  -2.334
   25       -0.005  -0.016   2.671   2.650
   26       -0.004  -0.033   2.377   2.339
   27       -0.016  -0.058   2.468   2.394
   28       -0.002  -0.007   1.988   1.979
   29       -0.005  -0.016   2.673   2.652
   30       -0.012  -0.051   2.445   2.383
   31       -0.015  -0.057   2.444   2.371
   32       -0.003  -0.022   2.693   2.668
   33       -0.004  -0.017   2.669   2.648
   34       -0.015  -0.047   2.321   2.259
   35       -0.014  -0.057   2.438   2.366
   36       -0.004  -0.009   2.085   2.073
   37       -0.004  -0.016   2.675   2.656
   38       -0.002  -0.024   2.271   2.244
   39       -0.015  -0.057   2.462   2.389
   40       -0.023  -0.034  -2.191  -2.248
   41       -0.004  -0.016   2.656   2.635
   42       -0.007  -0.037   2.224   2.180
   43       -0.015  -0.058   2.470   2.398
   44        0.004  -0.002   2.285   2.288
   45       -0.004  -0.017   2.684   2.663
   46       -0.015  -0.054   2.551   2.482
   47       -0.016  -0.057   2.469   2.396
   48        0.002  -0.014   2.316   2.303
   49       -0.005  -0.017   2.684   2.663
   50       -0.005  -0.049   2.325   2.271
   51       -0.015  -0.056   2.460   2.388
   52       -0.031  -0.044  -2.015  -2.090
   53       -0.004  -0.015   2.660   2.640
   54       -0.008  -0.034   2.068   2.026
   55       -0.013  -0.052   2.466   2.401
   56       -0.036  -0.040  -2.362  -2.439
   57       -0.005  -0.017   2.674   2.652
   58       -0.008  -0.040   2.263   2.215
   59       -0.016  -0.057   2.458   2.386
   60        0.009  -0.007   2.322   2.324
   61       -0.004  -0.017   2.682   2.661
   62       -0.013  -0.053   2.412   2.346
   63       -0.015  -0.055   2.430   2.360
   64        0.001  -0.011   2.724   2.714
   65        0.000  -0.004   0.000  -0.004
   66        0.003   0.022   0.000   0.024
   67        0.002   0.042   0.000   0.045
   68       -0.002  -0.083   0.000  -0.085
   69       -0.001  -0.038   0.000  -0.039
--------------------------------------------------
tot         -0.549  -2.161 139.055 136.345
 
 BZINTS: Fermi energy: -0.623935;542.000000 electrons
         Band energy:***********;  BLOECHL correction: -0.014273

 total amount of memory used by VASP MPI-rank0   110028. kBytes
=======================================================================

   base      :      30000. kBytes
   nonlr-proj:      13534. kBytes
   fftplans  :       6401. kBytes
   grid      :      16455. kBytes
   one-center:         93. kBytes
   wavefun   :      43545. kBytes
 
  
  
 General timing and accounting informations for this job:
 ========================================================
  
                  Total CPU time used (sec):     1127.355
                            User time (sec):      966.235
                          System time (sec):      161.120
                         Elapsed time (sec):     1198.040
  
                   Maximum memory used (kb):      342444.
                   Average memory used (kb):           0.
  
                          Minor page faults:     17873393
                          Major page faults:            0
                 Voluntary context switches:         4422
