 108 108   1   0
  0.1138438E+02  0.7575235E-09  0.1262539E-08  0.1450547E-08  0.5000000E-15
  1.000000000000000E-004
  CAR 
 SQS-NiFe                                
     19.46393179     -3.30972485  301      7.45878350      1.00000000
     -3.310  0.0000E+00  0.0000E+00  0.0000E+00  0.0000E+00
     -3.234  0.0000E+00  0.0000E+00  0.0000E+00  0.0000E+00
     -3.158  0.0000E+00  0.0000E+00  0.0000E+00  0.0000E+00
     -3.082  0.0000E+00  0.0000E+00  0.0000E+00  0.0000E+00
     -3.006  0.0000E+00  0.0000E+00  0.0000E+00  0.0000E+00
     -2.930 -0.7841E-30  0.0000E+00 -0.5952E-31  0.0000E+00
     -2.854 -0.3027E-27 -0.3056E-30 -0.2304E-28 -0.2320E-31
     -2.778 -0.8753E-25 -0.1234E-27 -0.6668E-26 -0.9388E-29
     -2.702 -0.1892E-22 -0.3731E-25 -0.1443E-23 -0.2842E-26
     -2.627 -0.3055E-20 -0.8434E-23 -0.2334E-21 -0.6431E-24
     -2.551 -0.3685E-18 -0.1424E-20 -0.2821E-19 -0.1088E-21
     -2.475 -0.3193E-16 -0.1797E-18 -0.2452E-17 -0.1375E-19
     -2.399 -0.2152E-14 -0.1630E-16 -0.1658E-15 -0.1251E-17
     -2.323 -0.1071E-12 -0.1149E-14 -0.8292E-14 -0.8850E-16
     -2.247 -0.3957E-11 -0.5984E-13 -0.3087E-12 -0.4631E-14
     -2.171 -0.1085E-09 -0.2315E-11 -0.8542E-11 -0.1804E-12
     -2.095 -0.2198E-08 -0.6646E-10 -0.1754E-09 -0.5226E-11
     -2.019 -0.3279E-07 -0.1411E-08 -0.2664E-08 -0.1123E-09
     -1.943 -0.3578E-06 -0.2208E-07 -0.2983E-07 -0.1788E-08
     -1.867 -0.2830E-05 -0.2530E-06 -0.2446E-06 -0.2099E-07
     -1.791 -0.1595E-04 -0.2104E-05 -0.1455E-05 -0.1807E-06
     -1.716 -0.6207E-04 -0.1252E-04 -0.6167E-05 -0.1131E-05
     -1.640 -0.1554E-03 -0.5178E-04 -0.1796E-04 -0.5062E-05
     -1.564 -0.1947E-03 -0.1403E-03 -0.3274E-04 -0.1571E-04
     -1.488  0.1159E-03 -0.2056E-03 -0.2394E-04 -0.3132E-04
     -1.412  0.9362E-03  0.2340E-04  0.4713E-04 -0.2954E-04
     -1.336  0.1810E-02  0.7749E-03  0.1845E-03  0.2928E-04
     -1.260  0.2547E-02  0.1715E-02  0.3778E-03  0.1595E-03
     -1.184  0.5119E-02  0.2517E-02  0.7664E-03  0.3505E-03
     -1.108  0.1229E-01  0.4698E-02  0.1700E-02  0.7072E-03
     -1.032  0.2247E-01  0.1099E-01  0.3406E-02  0.1541E-02
     -0.956  0.2907E-01  0.2073E-01  0.5613E-02  0.3115E-02
     -0.881  0.2816E-01  0.2820E-01  0.7750E-02  0.5256E-02
     -0.805  0.2383E-01  0.2878E-01  0.9560E-02  0.7440E-02
     -0.729  0.2332E-01  0.2486E-01  0.1133E-01  0.9328E-02
     -0.653  0.2890E-01  0.2312E-01  0.1352E-01  0.1108E-01
     -0.577  0.3629E-01  0.2709E-01  0.1628E-01  0.1314E-01
     -0.501  0.4012E-01  0.3414E-01  0.1932E-01  0.1573E-01
     -0.425  0.3918E-01  0.3899E-01  0.2230E-01  0.1869E-01
     -0.349  0.3519E-01  0.3920E-01  0.2497E-01  0.2167E-01
     -0.273  0.3034E-01  0.3592E-01  0.2727E-01  0.2439E-01
     -0.197  0.2954E-01  0.3120E-01  0.2952E-01  0.2676E-01
     -0.121  0.3815E-01  0.2891E-01  0.3241E-01  0.2896E-01
     -0.046  0.5149E-01  0.3469E-01  0.3632E-01  0.3159E-01
      0.030  0.5728E-01  0.4739E-01  0.4067E-01  0.3519E-01
      0.106  0.5329E-01  0.5611E-01  0.4471E-01  0.3945E-01
      0.182  0.5102E-01  0.5416E-01  0.4859E-01  0.4356E-01
      0.258  0.5875E-01  0.4874E-01  0.5305E-01  0.4726E-01
      0.334  0.7136E-01  0.5090E-01  0.5846E-01  0.5112E-01
      0.410  0.7785E-01  0.6228E-01  0.6437E-01  0.5585E-01
      0.486  0.7243E-01  0.7435E-01  0.6987E-01  0.6150E-01
      0.562  0.5916E-01  0.7646E-01  0.7436E-01  0.6730E-01
      0.638  0.4788E-01  0.6560E-01  0.7800E-01  0.7228E-01
      0.714  0.4475E-01  0.5028E-01  0.8139E-01  0.7610E-01
      0.790  0.4911E-01  0.4172E-01  0.8512E-01  0.7926E-01
      0.865  0.5836E-01  0.4270E-01  0.8955E-01  0.8250E-01
      0.941  0.6978E-01  0.4922E-01  0.9485E-01  0.8624E-01
      1.017  0.7875E-01  0.5827E-01  0.1008E+00  0.9066E-01
      1.093  0.8192E-01  0.6809E-01  0.1070E+00  0.9583E-01
      1.169  0.8274E-01  0.7505E-01  0.1133E+00  0.1015E+00
      1.245  0.8849E-01  0.7700E-01  0.1200E+00  0.1074E+00
      1.321  0.1004E+00  0.7763E-01  0.1277E+00  0.1133E+00
      1.397  0.1108E+00  0.8236E-01  0.1361E+00  0.1195E+00
      1.473  0.1115E+00  0.9120E-01  0.1445E+00  0.1264E+00
      1.549  0.1020E+00  0.9890E-01  0.1523E+00  0.1340E+00
      1.625  0.9244E-01  0.1007E+00  0.1593E+00  0.1416E+00
      1.700  0.9602E-01  0.9571E-01  0.1666E+00  0.1489E+00
      1.776  0.1154E+00  0.8706E-01  0.1754E+00  0.1555E+00
      1.852  0.1386E+00  0.8159E-01  0.1859E+00  0.1617E+00
      1.928  0.1522E+00  0.8467E-01  0.1974E+00  0.1681E+00
      2.004  0.1522E+00  0.9455E-01  0.2090E+00  0.1753E+00
      2.080  0.1444E+00  0.1059E+00  0.2199E+00  0.1833E+00
      2.156  0.1405E+00  0.1163E+00  0.2306E+00  0.1921E+00
      2.232  0.1523E+00  0.1245E+00  0.2422E+00  0.2016E+00
      2.308  0.1838E+00  0.1265E+00  0.2561E+00  0.2112E+00
      2.384  0.2366E+00  0.1197E+00  0.2741E+00  0.2203E+00
      2.460  0.3143E+00  0.1092E+00  0.2979E+00  0.2286E+00
      2.536  0.4143E+00  0.1054E+00  0.3294E+00  0.2366E+00
      2.611  0.5190E+00  0.1138E+00  0.3688E+00  0.2452E+00
      2.687  0.6034E+00  0.1291E+00  0.4146E+00  0.2550E+00
      2.763  0.6472E+00  0.1429E+00  0.4637E+00  0.2659E+00
      2.839  0.6489E+00  0.1537E+00  0.5130E+00  0.2775E+00
      2.915  0.6343E+00  0.1656E+00  0.5611E+00  0.2901E+00
      2.991  0.6399E+00  0.1800E+00  0.6097E+00  0.3038E+00
      3.067  0.6838E+00  0.1965E+00  0.6616E+00  0.3187E+00
      3.143  0.7555E+00  0.2188E+00  0.7190E+00  0.3353E+00
      3.219  0.8340E+00  0.2541E+00  0.7823E+00  0.3546E+00
      3.295  0.9086E+00  0.3026E+00  0.8513E+00  0.3776E+00
      3.371  0.9751E+00  0.3541E+00  0.9253E+00  0.4044E+00
      3.446  0.1021E+01  0.3990E+00  0.1003E+01  0.4347E+00
      3.522  0.1032E+01  0.4348E+00  0.1081E+01  0.4677E+00
      3.598  0.1013E+01  0.4599E+00  0.1158E+01  0.5026E+00
      3.674  0.9902E+00  0.4724E+00  0.1233E+01  0.5385E+00
      3.750  0.9864E+00  0.4765E+00  0.1308E+01  0.5747E+00
      3.826  0.9938E+00  0.4806E+00  0.1384E+01  0.6112E+00
      3.902  0.9833E+00  0.4906E+00  0.1458E+01  0.6484E+00
      3.978  0.9392E+00  0.5094E+00  0.1529E+01  0.6871E+00
      4.054  0.8868E+00  0.5428E+00  0.1597E+01  0.7283E+00
      4.130  0.8713E+00  0.5955E+00  0.1663E+01  0.7735E+00
      4.206  0.9095E+00  0.6600E+00  0.1732E+01  0.8236E+00
      4.281  0.9741E+00  0.7222E+00  0.1806E+01  0.8784E+00
      4.357  0.1028E+01  0.7767E+00  0.1884E+01  0.9374E+00
      4.433  0.1066E+01  0.8248E+00  0.1965E+01  0.1000E+01
      4.509  0.1113E+01  0.8615E+00  0.2049E+01  0.1065E+01
      4.585  0.1190E+01  0.8798E+00  0.2140E+01  0.1132E+01
      4.661  0.1282E+01  0.8854E+00  0.2237E+01  0.1199E+01
      4.737  0.1359E+01  0.8887E+00  0.2340E+01  0.1267E+01
      4.813  0.1424E+01  0.8883E+00  0.2448E+01  0.1334E+01
      4.889  0.1512E+01  0.8763E+00  0.2563E+01  0.1401E+01
      4.965  0.1636E+01  0.8538E+00  0.2687E+01  0.1466E+01
      5.041  0.1757E+01  0.8328E+00  0.2821E+01  0.1529E+01
      5.117  0.1810E+01  0.8268E+00  0.2958E+01  0.1592E+01
      5.192  0.1759E+01  0.8448E+00  0.3092E+01  0.1656E+01
      5.268  0.1619E+01  0.8860E+00  0.3215E+01  0.1723E+01
      5.344  0.1435E+01  0.9362E+00  0.3324E+01  0.1794E+01
      5.420  0.1263E+01  0.9761E+00  0.3419E+01  0.1868E+01
      5.496  0.1147E+01  0.9983E+00  0.3506E+01  0.1944E+01
      5.572  0.1115E+01  0.1013E+01  0.3591E+01  0.2021E+01
      5.648  0.1175E+01  0.1035E+01  0.3680E+01  0.2099E+01
      5.724  0.1304E+01  0.1069E+01  0.3779E+01  0.2181E+01
      5.800  0.1438E+01  0.1111E+01  0.3888E+01  0.2265E+01
      5.876  0.1503E+01  0.1154E+01  0.4003E+01  0.2352E+01
      5.952  0.1477E+01  0.1196E+01  0.4115E+01  0.2443E+01
      6.027  0.1394E+01  0.1237E+01  0.4220E+01  0.2537E+01
      6.103  0.1305E+01  0.1272E+01  0.4320E+01  0.2634E+01
      6.179  0.1254E+01  0.1292E+01  0.4415E+01  0.2732E+01
      6.255  0.1259E+01  0.1291E+01  0.4510E+01  0.2830E+01
      6.331  0.1301E+01  0.1272E+01  0.4609E+01  0.2926E+01
      6.407  0.1343E+01  0.1245E+01  0.4711E+01  0.3021E+01
      6.483  0.1383E+01  0.1210E+01  0.4816E+01  0.3113E+01
      6.559  0.1465E+01  0.1168E+01  0.4927E+01  0.3201E+01
      6.635  0.1621E+01  0.1126E+01  0.5050E+01  0.3287E+01
      6.711  0.1794E+01  0.1086E+01  0.5187E+01  0.3369E+01
      6.787  0.1848E+01  0.1045E+01  0.5327E+01  0.3449E+01
      6.863  0.1682E+01  0.9993E+00  0.5455E+01  0.3524E+01
      6.938  0.1331E+01  0.9526E+00  0.5556E+01  0.3597E+01
      7.014  0.9276E+00  0.9150E+00  0.5626E+01  0.3666E+01
      7.090  0.5828E+00  0.8966E+00  0.5670E+01  0.3734E+01
      7.166  0.3466E+00  0.8964E+00  0.5697E+01  0.3802E+01
      7.242  0.2256E+00  0.8992E+00  0.5714E+01  0.3871E+01
      7.318  0.1936E+00  0.8913E+00  0.5728E+01  0.3938E+01
      7.394  0.2048E+00  0.8727E+00  0.5744E+01  0.4004E+01
      7.470  0.2227E+00  0.8522E+00  0.5761E+01  0.4069E+01
      7.546  0.2357E+00  0.8383E+00  0.5779E+01  0.4133E+01
      7.622  0.2457E+00  0.8367E+00  0.5797E+01  0.4196E+01
      7.698  0.2522E+00  0.8485E+00  0.5817E+01  0.4261E+01
      7.773  0.2509E+00  0.8670E+00  0.5836E+01  0.4327E+01
      7.849  0.2393E+00  0.8815E+00  0.5854E+01  0.4393E+01
      7.925  0.2175E+00  0.8852E+00  0.5870E+01  0.4461E+01
      8.001  0.1882E+00  0.8801E+00  0.5885E+01  0.4527E+01
      8.077  0.1567E+00  0.8716E+00  0.5896E+01  0.4594E+01
      8.153  0.1304E+00  0.8603E+00  0.5906E+01  0.4659E+01
      8.229  0.1178E+00  0.8435E+00  0.5915E+01  0.4723E+01
      8.305  0.1242E+00  0.8266E+00  0.5925E+01  0.4786E+01
      8.381  0.1463E+00  0.8237E+00  0.5936E+01  0.4848E+01
      8.457  0.1740E+00  0.8448E+00  0.5949E+01  0.4912E+01
      8.533  0.1976E+00  0.8859E+00  0.5964E+01  0.4980E+01
      8.608  0.2118E+00  0.9317E+00  0.5980E+01  0.5050E+01
      8.684  0.2103E+00  0.9671E+00  0.5996E+01  0.5124E+01
      8.760  0.1852E+00  0.9872E+00  0.6010E+01  0.5199E+01
      8.836  0.1413E+00  0.9968E+00  0.6021E+01  0.5274E+01
      8.912  0.1023E+00  0.1002E+01  0.6029E+01  0.5350E+01
      8.988  0.8776E-01  0.1001E+01  0.6035E+01  0.5426E+01
      9.064  0.9697E-01  0.9893E+00  0.6043E+01  0.5502E+01
      9.140  0.1185E+00  0.9539E+00  0.6052E+01  0.5574E+01
      9.216  0.1406E+00  0.8873E+00  0.6062E+01  0.5641E+01
      9.292  0.1541E+00  0.7928E+00  0.6074E+01  0.5702E+01
      9.368  0.1572E+00  0.6823E+00  0.6086E+01  0.5753E+01
      9.444  0.1568E+00  0.5684E+00  0.6098E+01  0.5796E+01
      9.519  0.1600E+00  0.4644E+00  0.6110E+01  0.5832E+01
      9.595  0.1666E+00  0.3837E+00  0.6123E+01  0.5861E+01
      9.671  0.1709E+00  0.3320E+00  0.6136E+01  0.5886E+01
      9.747  0.1704E+00  0.3034E+00  0.6149E+01  0.5909E+01
      9.823  0.1643E+00  0.2885E+00  0.6161E+01  0.5931E+01
      9.899  0.1485E+00  0.2818E+00  0.6172E+01  0.5952E+01
      9.975  0.1242E+00  0.2769E+00  0.6182E+01  0.5973E+01
     10.051  0.1076E+00  0.2619E+00  0.6190E+01  0.5993E+01
     10.127  0.1150E+00  0.2313E+00  0.6199E+01  0.6011E+01
     10.203  0.1402E+00  0.1969E+00  0.6209E+01  0.6026E+01
     10.279  0.1616E+00  0.1755E+00  0.6222E+01  0.6039E+01
     10.354  0.1649E+00  0.1716E+00  0.6234E+01  0.6052E+01
     10.430  0.1495E+00  0.1784E+00  0.6245E+01  0.6066E+01
     10.506  0.1244E+00  0.1862E+00  0.6255E+01  0.6080E+01
     10.582  0.1040E+00  0.1868E+00  0.6263E+01  0.6094E+01
     10.658  0.9948E-01  0.1780E+00  0.6270E+01  0.6107E+01
     10.734  0.1093E+00  0.1693E+00  0.6279E+01  0.6120E+01
     10.810  0.1232E+00  0.1751E+00  0.6288E+01  0.6134E+01
     10.886  0.1349E+00  0.1941E+00  0.6298E+01  0.6148E+01
     10.962  0.1458E+00  0.2039E+00  0.6309E+01  0.6164E+01
     11.038  0.1542E+00  0.1881E+00  0.6321E+01  0.6178E+01
     11.114  0.1539E+00  0.1609E+00  0.6333E+01  0.6190E+01
     11.190  0.1417E+00  0.1516E+00  0.6343E+01  0.6202E+01
     11.265  0.1184E+00  0.1708E+00  0.6352E+01  0.6215E+01
     11.341  0.8955E-01  0.1996E+00  0.6359E+01  0.6230E+01
     11.417  0.6846E-01  0.2096E+00  0.6364E+01  0.6246E+01
     11.493  0.6518E-01  0.1909E+00  0.6369E+01  0.6260E+01
     11.569  0.7383E-01  0.1587E+00  0.6375E+01  0.6272E+01
     11.645  0.8130E-01  0.1359E+00  0.6381E+01  0.6283E+01
     11.721  0.8484E-01  0.1319E+00  0.6388E+01  0.6293E+01
     11.797  0.9131E-01  0.1357E+00  0.6394E+01  0.6303E+01
     11.873  0.1018E+00  0.1329E+00  0.6402E+01  0.6313E+01
     11.949  0.1087E+00  0.1241E+00  0.6410E+01  0.6323E+01
     12.025  0.1094E+00  0.1204E+00  0.6419E+01  0.6332E+01
     12.100  0.1086E+00  0.1245E+00  0.6427E+01  0.6341E+01
     12.176  0.1053E+00  0.1271E+00  0.6435E+01  0.6351E+01
     12.252  0.9333E-01  0.1211E+00  0.6442E+01  0.6360E+01
     12.328  0.7845E-01  0.1111E+00  0.6448E+01  0.6368E+01
     12.404  0.7483E-01  0.1041E+00  0.6454E+01  0.6376E+01
     12.480  0.8242E-01  0.9876E-01  0.6460E+01  0.6384E+01
     12.556  0.8656E-01  0.9156E-01  0.6467E+01  0.6391E+01
     12.632  0.7985E-01  0.8675E-01  0.6473E+01  0.6397E+01
     12.708  0.6860E-01  0.9197E-01  0.6478E+01  0.6404E+01
     12.784  0.6024E-01  0.1066E+00  0.6482E+01  0.6412E+01
     12.860  0.5552E-01  0.1201E+00  0.6487E+01  0.6422E+01
     12.935  0.5322E-01  0.1225E+00  0.6491E+01  0.6431E+01
     13.011  0.5636E-01  0.1138E+00  0.6495E+01  0.6439E+01
     13.087  0.6957E-01  0.1020E+00  0.6500E+01  0.6447E+01
     13.163  0.9122E-01  0.9505E-01  0.6507E+01  0.6454E+01
     13.239  0.1129E+00  0.9261E-01  0.6516E+01  0.6461E+01
     13.315  0.1262E+00  0.8604E-01  0.6525E+01  0.6468E+01
     13.391  0.1279E+00  0.7263E-01  0.6535E+01  0.6474E+01
     13.467  0.1229E+00  0.6254E-01  0.6544E+01  0.6478E+01
     13.543  0.1222E+00  0.6394E-01  0.6554E+01  0.6483E+01
     13.619  0.1349E+00  0.7054E-01  0.6564E+01  0.6488E+01
     13.695  0.1577E+00  0.7374E-01  0.6576E+01  0.6494E+01
     13.771  0.1745E+00  0.7570E-01  0.6589E+01  0.6500E+01
     13.846  0.1733E+00  0.8019E-01  0.6602E+01  0.6506E+01
     13.922  0.1597E+00  0.8188E-01  0.6614E+01  0.6512E+01
     13.998  0.1489E+00  0.7493E-01  0.6626E+01  0.6518E+01
     14.074  0.1507E+00  0.6505E-01  0.6637E+01  0.6523E+01
     14.150  0.1648E+00  0.6520E-01  0.6650E+01  0.6528E+01
     14.226  0.1827E+00  0.8186E-01  0.6663E+01  0.6534E+01
     14.302  0.1925E+00  0.1099E+00  0.6678E+01  0.6542E+01
     14.378  0.1902E+00  0.1382E+00  0.6692E+01  0.6553E+01
     14.454  0.1808E+00  0.1576E+00  0.6706E+01  0.6565E+01
     14.530  0.1708E+00  0.1671E+00  0.6719E+01  0.6577E+01
     14.606  0.1648E+00  0.1736E+00  0.6732E+01  0.6591E+01
     14.681  0.1628E+00  0.1804E+00  0.6744E+01  0.6604E+01
     14.757  0.1600E+00  0.1837E+00  0.6756E+01  0.6618E+01
     14.833  0.1548E+00  0.1825E+00  0.6768E+01  0.6632E+01
     14.909  0.1512E+00  0.1838E+00  0.6779E+01  0.6646E+01
     14.985  0.1504E+00  0.1908E+00  0.6791E+01  0.6661E+01
     15.061  0.1477E+00  0.1961E+00  0.6802E+01  0.6675E+01
     15.137  0.1380E+00  0.1939E+00  0.6813E+01  0.6690E+01
     15.213  0.1193E+00  0.1891E+00  0.6822E+01  0.6704E+01
     15.289  0.9629E-01  0.1876E+00  0.6829E+01  0.6719E+01
     15.365  0.8165E-01  0.1855E+00  0.6835E+01  0.6733E+01
     15.441  0.8544E-01  0.1781E+00  0.6842E+01  0.6746E+01
     15.516  0.1035E+00  0.1695E+00  0.6849E+01  0.6759E+01
     15.592  0.1235E+00  0.1651E+00  0.6859E+01  0.6772E+01
     15.668  0.1381E+00  0.1626E+00  0.6869E+01  0.6784E+01
     15.744  0.1479E+00  0.1563E+00  0.6881E+01  0.6796E+01
     15.820  0.1555E+00  0.1432E+00  0.6892E+01  0.6807E+01
     15.896  0.1622E+00  0.1259E+00  0.6905E+01  0.6816E+01
     15.972  0.1645E+00  0.1141E+00  0.6917E+01  0.6825E+01
     16.048  0.1572E+00  0.1160E+00  0.6929E+01  0.6834E+01
     16.124  0.1402E+00  0.1284E+00  0.6940E+01  0.6844E+01
     16.200  0.1219E+00  0.1401E+00  0.6949E+01  0.6854E+01
     16.276  0.1107E+00  0.1436E+00  0.6957E+01  0.6865E+01
     16.352  0.1065E+00  0.1422E+00  0.6965E+01  0.6876E+01
     16.427  0.1015E+00  0.1450E+00  0.6973E+01  0.6887E+01
     16.503  0.9038E-01  0.1552E+00  0.6980E+01  0.6899E+01
     16.579  0.7632E-01  0.1662E+00  0.6986E+01  0.6911E+01
     16.655  0.6531E-01  0.1685E+00  0.6991E+01  0.6924E+01
     16.731  0.5594E-01  0.1577E+00  0.6995E+01  0.6936E+01
     16.807  0.4176E-01  0.1381E+00  0.6998E+01  0.6947E+01
     16.883  0.2268E-01  0.1197E+00  0.7000E+01  0.6956E+01
     16.959  0.6535E-02  0.1088E+00  0.7000E+01  0.6964E+01
     17.035 -0.1169E-02  0.1018E+00  0.7000E+01  0.6972E+01
     17.111 -0.2270E-02  0.9191E-01  0.7000E+01  0.6979E+01
     17.187 -0.1222E-02  0.7921E-01  0.7000E+01  0.6985E+01
     17.262 -0.3997E-03  0.6728E-01  0.7000E+01  0.6990E+01
     17.338 -0.8932E-04  0.5604E-01  0.7000E+01  0.6994E+01
     17.414 -0.1421E-04  0.4260E-01  0.7000E+01  0.6997E+01
     17.490 -0.1641E-05  0.2657E-01  0.7000E+01  0.6999E+01
     17.566 -0.1391E-06  0.1168E-01  0.7000E+01  0.7000E+01
     17.642 -0.8696E-08  0.2156E-02  0.7000E+01  0.7000E+01
     17.718 -0.4030E-09 -0.1363E-02  0.7000E+01  0.7000E+01
     17.794 -0.1388E-10 -0.1433E-02  0.7000E+01  0.7000E+01
     17.870 -0.3557E-12 -0.6905E-03  0.7000E+01  0.7000E+01
     17.946 -0.6800E-14 -0.2167E-03  0.7000E+01  0.7000E+01
     18.022 -0.9849E-16 -0.4784E-04  0.7000E+01  0.7000E+01
     18.098  0.0000E+00 -0.7650E-05  0.7000E+01  0.7000E+01
     18.173  0.0000E+00 -0.8977E-06  0.7000E+01  0.7000E+01
     18.249  0.0000E+00 -0.7785E-07  0.7000E+01  0.7000E+01
     18.325  0.0000E+00 -0.5008E-08  0.7000E+01  0.7000E+01
     18.401  0.0000E+00 -0.2396E-09  0.7000E+01  0.7000E+01
     18.477  0.0000E+00 -0.8541E-11  0.7000E+01  0.7000E+01
     18.553  0.0000E+00 -0.2270E-12  0.7000E+01  0.7000E+01
     18.629  0.0000E+00 -0.4501E-14  0.7000E+01  0.7000E+01
     18.705  0.0000E+00 -0.6402E-16  0.7000E+01  0.7000E+01
     18.781  0.0000E+00  0.0000E+00  0.7000E+01  0.7000E+01
     18.857  0.0000E+00  0.0000E+00  0.7000E+01  0.7000E+01
     18.933  0.0000E+00  0.0000E+00  0.7000E+01  0.7000E+01
     19.008  0.0000E+00  0.0000E+00  0.7000E+01  0.7000E+01
     19.084  0.0000E+00  0.0000E+00  0.7000E+01  0.7000E+01
     19.160  0.0000E+00  0.0000E+00  0.7000E+01  0.7000E+01
     19.236  0.0000E+00  0.0000E+00  0.7000E+01  0.7000E+01
     19.312  0.0000E+00  0.0000E+00  0.7000E+01  0.7000E+01
     19.388  0.0000E+00  0.0000E+00  0.7000E+01  0.7000E+01
     19.464  0.0000E+00  0.0000E+00  0.7000E+01  0.7000E+01
     19.46393179     -3.30972485  301      7.45878350      1.00000000
     -3.310  0.0000E+00  0.0000E+00  0.0000E+00  0.0000E+00  0.0000E+00  0.0000E+00
     -3.234  0.0000E+00  0.0000E+00  0.0000E+00  0.0000E+00  0.0000E+00  0.0000E+00
     -3.158  0.0000E+00  0.0000E+00  0.0000E+00  0.0000E+00  0.0000E+00  0.0000E+00
     -3.082  0.0000E+00  0.0000E+00  0.0000E+00  0.0000E+00  0.0000E+00  0.0000E+00
     -3.006  0.0000E+00  0.0000E+00  0.0000E+00  0.0000E+00  0.0000E+00  0.0000E+00
     -2.930 -0.4968E-30  0.0000E+00 -0.5551E-33  0.0000E+00 -0.5568E-34  0.0000E+00
     -2.854 -0.1918E-27 -0.1777E-30 -0.2143E-30 -0.3598E-33 -0.2149E-31 -0.1053E-34
     -2.778 -0.5546E-25 -0.7175E-28 -0.6197E-28 -0.1452E-30 -0.6216E-29 -0.4251E-32
     -2.702 -0.1199E-22 -0.2170E-25 -0.1339E-25 -0.4392E-28 -0.1344E-26 -0.1286E-29
     -2.627 -0.1936E-20 -0.4905E-23 -0.2163E-23 -0.9929E-26 -0.2170E-24 -0.2906E-27
     -2.551 -0.2335E-18 -0.8285E-21 -0.2609E-21 -0.1677E-23 -0.2617E-22 -0.4909E-25
     -2.475 -0.2023E-16 -0.1045E-18 -0.2261E-19 -0.2116E-21 -0.2268E-20 -0.6192E-23
     -2.399 -0.1364E-14 -0.9482E-17 -0.1524E-17 -0.1919E-19 -0.1528E-18 -0.5618E-21
     -2.323 -0.6782E-13 -0.6685E-15 -0.7579E-16 -0.1353E-17 -0.7602E-17 -0.3960E-19
     -2.247 -0.2507E-11 -0.3480E-13 -0.2802E-14 -0.7046E-16 -0.2810E-15 -0.2062E-17
     -2.171 -0.6871E-10 -0.1347E-11 -0.7682E-13 -0.2727E-14 -0.7702E-14 -0.7979E-16
     -2.095 -0.1392E-08 -0.3866E-10 -0.1558E-11 -0.7829E-13 -0.1561E-12 -0.2290E-14
     -2.019 -0.2077E-07 -0.8208E-09 -0.2329E-10 -0.1663E-11 -0.2329E-11 -0.4864E-13
     -1.943 -0.2267E-06 -0.1284E-07 -0.2557E-09 -0.2606E-10 -0.2543E-10 -0.7611E-12
     -1.867 -0.1793E-05 -0.1471E-06 -0.2055E-08 -0.2999E-09 -0.2015E-09 -0.8729E-11
     -1.791 -0.1010E-04 -0.1224E-05 -0.1214E-07 -0.2523E-08 -0.1143E-08 -0.7280E-10
     -1.716 -0.3934E-04 -0.7280E-05 -0.5425E-07 -0.1549E-07 -0.4557E-08 -0.4368E-09
     -1.640 -0.9856E-04 -0.3012E-04 -0.2030E-06 -0.7005E-07 -0.1259E-07 -0.1861E-08
     -1.564 -0.1238E-03 -0.8156E-04 -0.7571E-06 -0.2469E-06 -0.2594E-07 -0.5635E-08
     -1.488  0.7331E-04 -0.1192E-03 -0.2914E-05 -0.7855E-06 -0.6071E-07 -0.1338E-07
     -1.412  0.5993E-03  0.1641E-04 -0.9545E-05 -0.2601E-05 -0.2139E-06 -0.3582E-07
     -1.336  0.1177E-02  0.4637E-03 -0.2127E-04 -0.8071E-05 -0.6441E-06 -0.1278E-06
     -1.260  0.1681E-02  0.1034E-02 -0.2066E-04 -0.1804E-04 -0.1046E-05 -0.3934E-06
     -1.184  0.3288E-02  0.1518E-02  0.4114E-04 -0.1801E-04  0.2475E-06 -0.7251E-06
     -1.108  0.7633E-02  0.2710E-02  0.2085E-03  0.3525E-04  0.5598E-05 -0.2254E-06
     -1.032  0.1372E-01  0.6107E-02  0.4403E-03  0.1852E-03  0.1469E-04  0.2728E-05
     -0.956  0.1763E-01  0.1139E-01  0.6104E-03  0.4037E-03  0.2311E-04  0.8632E-05
     -0.881  0.1705E-01  0.1549E-01  0.6511E-03  0.5811E-03  0.2836E-04  0.1515E-04
     -0.805  0.1441E-01  0.1583E-01  0.6653E-03  0.6421E-03  0.3715E-04  0.1965E-04
     -0.729  0.1392E-01  0.1361E-01  0.8335E-03  0.6515E-03  0.6139E-04  0.2450E-04
     -0.653  0.1675E-01  0.1241E-01  0.1218E-02  0.7611E-03  0.1027E-03  0.3708E-04
     -0.577  0.2031E-01  0.1418E-01  0.1682E-02  0.1064E-02  0.1457E-03  0.6084E-04
     -0.501  0.2169E-01  0.1739E-01  0.2021E-02  0.1500E-02  0.1758E-03  0.8766E-04
     -0.425  0.2077E-01  0.1921E-01  0.2129E-02  0.1893E-02  0.1956E-03  0.1064E-03
     -0.349  0.1897E-01  0.1896E-01  0.2008E-02  0.2078E-02  0.2082E-03  0.1178E-03
     -0.273  0.1710E-01  0.1790E-01  0.1796E-02  0.1997E-02  0.2199E-03  0.1269E-03
     -0.197  0.1687E-01  0.1673E-01  0.1934E-02  0.1762E-02  0.2890E-03  0.1330E-03
     -0.121  0.2035E-01  0.1617E-01  0.2852E-02  0.1761E-02  0.4821E-03  0.1564E-03
     -0.046  0.2519E-01  0.1805E-01  0.4136E-02  0.2464E-02  0.7320E-03  0.2434E-03
      0.030  0.2634E-01  0.2167E-01  0.4768E-02  0.3718E-02  0.8782E-03  0.3893E-03
      0.106  0.2436E-01  0.2295E-01  0.4536E-02  0.4605E-02  0.9171E-03  0.5078E-03
      0.182  0.2541E-01  0.2067E-01  0.4375E-02  0.4549E-02  0.1051E-02  0.5423E-03
      0.258  0.3218E-01  0.1938E-01  0.5051E-02  0.4115E-02  0.1426E-02  0.5551E-03
      0.334  0.3993E-01  0.2369E-01  0.6256E-02  0.4257E-02  0.1945E-02  0.6611E-03
      0.410  0.4211E-01  0.3248E-01  0.7051E-02  0.5198E-02  0.2332E-02  0.9109E-03
      0.486  0.3697E-01  0.3947E-01  0.6826E-02  0.6267E-02  0.2360E-02  0.1219E-02
      0.562  0.2873E-01  0.3890E-01  0.5897E-02  0.6574E-02  0.2081E-02  0.1384E-02
      0.638  0.2302E-01  0.3129E-01  0.5147E-02  0.5919E-02  0.1821E-02  0.1277E-02
      0.714  0.2164E-01  0.2307E-01  0.5064E-02  0.5047E-02  0.1902E-02  0.1027E-02
      0.790  0.2318E-01  0.1941E-01  0.5571E-02  0.4759E-02  0.2453E-02  0.8917E-03
      0.865  0.2684E-01  0.1975E-01  0.6606E-02  0.5068E-02  0.3418E-02  0.1002E-02
      0.941  0.3196E-01  0.2181E-01  0.8094E-02  0.5629E-02  0.4531E-02  0.1336E-02
      1.017  0.3638E-01  0.2547E-01  0.9539E-02  0.6458E-02  0.5350E-02  0.1826E-02
      1.093  0.3842E-01  0.3016E-01  0.1039E-01  0.7685E-02  0.5687E-02  0.2324E-02
      1.169  0.3919E-01  0.3348E-01  0.1088E-01  0.9019E-02  0.6053E-02  0.2613E-02
      1.245  0.4091E-01  0.3451E-01  0.1188E-01  0.1001E-01  0.7306E-02  0.2649E-02
      1.321  0.4347E-01  0.3504E-01  0.1367E-01  0.1068E-01  0.9585E-02  0.2734E-02
      1.397  0.4425E-01  0.3654E-01  0.1537E-01  0.1144E-01  0.1193E-01  0.3226E-02
      1.473  0.4165E-01  0.3792E-01  0.1576E-01  0.1252E-01  0.1311E-01  0.4118E-02
      1.549  0.3737E-01  0.3719E-01  0.1456E-01  0.1362E-01  0.1290E-01  0.5023E-02
      1.625  0.3556E-01  0.3449E-01  0.1314E-01  0.1415E-01  0.1266E-01  0.5528E-02
      1.700  0.3974E-01  0.3163E-01  0.1351E-01  0.1374E-01  0.1474E-01  0.5478E-02
      1.776  0.4813E-01  0.3005E-01  0.1615E-01  0.1268E-01  0.2021E-01  0.5103E-02
      1.852  0.5374E-01  0.3121E-01  0.1931E-01  0.1201E-01  0.2757E-01  0.4969E-02
      1.928  0.5242E-01  0.3613E-01  0.2111E-01  0.1265E-01  0.3404E-01  0.5587E-02
      2.004  0.4759E-01  0.4243E-01  0.2116E-01  0.1443E-01  0.3757E-01  0.6926E-02
      2.080  0.4468E-01  0.4566E-01  0.2016E-01  0.1650E-01  0.3842E-01  0.8556E-02
      2.156  0.4566E-01  0.4418E-01  0.1945E-01  0.1844E-01  0.4026E-01  0.1024E-01
      2.232  0.4977E-01  0.4011E-01  0.2028E-01  0.1996E-01  0.4892E-01  0.1192E-01
      2.308  0.5515E-01  0.3657E-01  0.2242E-01  0.2027E-01  0.7095E-01  0.1323E-01
      2.384  0.6028E-01  0.3538E-01  0.2449E-01  0.1883E-01  0.1137E+00  0.1356E-01
      2.460  0.6665E-01  0.3646E-01  0.2618E-01  0.1649E-01  0.1810E+00  0.1314E-01
      2.536  0.7727E-01  0.3902E-01  0.2878E-01  0.1519E-01  0.2650E+00  0.1330E-01
      2.611  0.9098E-01  0.4215E-01  0.3303E-01  0.1622E-01  0.3480E+00  0.1501E-01
      2.687  0.1015E+00  0.4411E-01  0.3776E-01  0.1879E-01  0.4120E+00  0.1766E-01
      2.763  0.1031E+00  0.4421E-01  0.4092E-01  0.2129E-01  0.4476E+00  0.2016E-01
      2.839  0.9642E-01  0.4470E-01  0.4143E-01  0.2323E-01  0.4623E+00  0.2248E-01
      2.915  0.8740E-01  0.4702E-01  0.4024E-01  0.2484E-01  0.4800E+00  0.2528E-01
      2.991  0.8145E-01  0.4893E-01  0.3945E-01  0.2577E-01  0.5184E+00  0.2876E-01
      3.067  0.7831E-01  0.4878E-01  0.4031E-01  0.2587E-01  0.5737E+00  0.3307E-01
      3.143  0.7369E-01  0.4952E-01  0.4198E-01  0.2652E-01  0.6341E+00  0.3942E-01
      3.219  0.6466E-01  0.5513E-01  0.4286E-01  0.2930E-01  0.6984E+00  0.4940E-01
      3.295  0.5250E-01  0.6451E-01  0.4286E-01  0.3360E-01  0.7708E+00  0.6260E-01
      3.371  0.4121E-01  0.7237E-01  0.4351E-01  0.3721E-01  0.8374E+00  0.7699E-01
      3.446  0.3372E-01  0.7570E-01  0.4576E-01  0.3893E-01  0.8638E+00  0.9258E-01
      3.522  0.2962E-01  0.7579E-01  0.4866E-01  0.3930E-01  0.8338E+00  0.1111E+00
      3.598  0.2625E-01  0.7408E-01  0.5079E-01  0.3900E-01  0.7804E+00  0.1306E+00
      3.674  0.2184E-01  0.7065E-01  0.5236E-01  0.3811E-01  0.7562E+00  0.1455E+00
      3.750  0.1677E-01  0.6642E-01  0.5462E-01  0.3677E-01  0.7698E+00  0.1526E+00
      3.826  0.1218E-01  0.6292E-01  0.5683E-01  0.3555E-01  0.7744E+00  0.1542E+00
      3.902  0.8609E-02  0.5997E-01  0.5607E-01  0.3521E-01  0.7281E+00  0.1542E+00
      3.978  0.6114E-02  0.5694E-01  0.5146E-01  0.3619E-01  0.6486E+00  0.1536E+00
      4.054  0.4639E-02  0.5573E-01  0.4645E-01  0.3826E-01  0.5942E+00  0.1560E+00
      4.130  0.4064E-02  0.5859E-01  0.4497E-01  0.4065E-01  0.6041E+00  0.1707E+00
      4.206  0.4250E-02  0.6326E-01  0.4732E-01  0.4254E-01  0.6703E+00  0.2051E+00
      4.281  0.5030E-02  0.6369E-01  0.5133E-01  0.4345E-01  0.7549E+00  0.2538E+00
      4.357  0.6111E-02  0.5659E-01  0.5546E-01  0.4350E-01  0.8219E+00  0.3001E+00
      4.433  0.7176E-02  0.4518E-01  0.5944E-01  0.4334E-01  0.8652E+00  0.3275E+00
      4.509  0.8185E-02  0.3490E-01  0.6333E-01  0.4382E-01  0.9108E+00  0.3302E+00
      4.585  0.9465E-02  0.2762E-01  0.6712E-01  0.4571E-01  0.9802E+00  0.3176E+00
      4.661  0.1130E-01  0.2197E-01  0.7025E-01  0.4936E-01  0.1062E+01  0.3085E+00
      4.737  0.1345E-01  0.1695E-01  0.7180E-01  0.5352E-01  0.1133E+01  0.3176E+00
      4.813  0.1547E-01  0.1283E-01  0.7197E-01  0.5598E-01  0.1193E+01  0.3433E+00
      4.889  0.1722E-01  0.9836E-02  0.7235E-01  0.5586E-01  0.1254E+01  0.3694E+00
      4.965  0.1854E-01  0.7705E-02  0.7339E-01  0.5439E-01  0.1316E+01  0.3801E+00
      5.041  0.1879E-01  0.6178E-02  0.7303E-01  0.5331E-01  0.1356E+01  0.3734E+00
      5.117  0.1770E-01  0.5233E-02  0.6946E-01  0.5322E-01  0.1348E+01  0.3591E+00
      5.192  0.1588E-01  0.4863E-02  0.6349E-01  0.5375E-01  0.1275E+01  0.3454E+00
      5.268  0.1397E-01  0.4943E-02  0.5654E-01  0.5481E-01  0.1142E+01  0.3326E+00
      5.344  0.1201E-01  0.5257E-02  0.4866E-01  0.5670E-01  0.9990E+00  0.3192E+00
      5.420  0.9808E-02  0.5632E-02  0.4055E-01  0.5924E-01  0.9063E+00  0.3078E+00
      5.496  0.7575E-02  0.6108E-02  0.3486E-01  0.6183E-01  0.8854E+00  0.3040E+00
      5.572  0.5992E-02  0.6917E-02  0.3378E-01  0.6433E-01  0.9162E+00  0.3141E+00
      5.648  0.5619E-02  0.8211E-02  0.3660E-01  0.6674E-01  0.9816E+00  0.3431E+00
      5.724  0.6266E-02  0.9870E-02  0.4035E-01  0.6837E-01  0.1073E+01  0.3925E+00
      5.800  0.7193E-02  0.1154E-01  0.4207E-01  0.6830E-01  0.1159E+01  0.4551E+00
      5.876  0.7859E-02  0.1286E-01  0.4073E-01  0.6678E-01  0.1185E+01  0.5141E+00
      5.952  0.8170E-02  0.1372E-01  0.3707E-01  0.6537E-01  0.1131E+01  0.5547E+00
      6.027  0.8139E-02  0.1429E-01  0.3229E-01  0.6557E-01  0.1034E+01  0.5795E+00
      6.103  0.7667E-02  0.1471E-01  0.2724E-01  0.6741E-01  0.9569E+00  0.6037E+00
      6.179  0.6778E-02  0.1508E-01  0.2277E-01  0.6949E-01  0.9408E+00  0.6318E+00
      6.255  0.5916E-02  0.1558E-01  0.2011E-01  0.7070E-01  0.9831E+00  0.6495E+00
      6.331  0.5677E-02  0.1608E-01  0.1981E-01  0.7133E-01  0.1048E+01  0.6451E+00
      6.407  0.6110E-02  0.1593E-01  0.2059E-01  0.7198E-01  0.1097E+01  0.6263E+00
      6.483  0.6615E-02  0.1478E-01  0.2033E-01  0.7263E-01  0.1130E+01  0.6099E+00
      6.559  0.6695E-02  0.1323E-01  0.1818E-01  0.7321E-01  0.1186E+01  0.6058E+00
      6.635  0.6454E-02  0.1205E-01  0.1500E-01  0.7370E-01  0.1307E+01  0.6164E+00
      6.711  0.6261E-02  0.1123E-01  0.1228E-01  0.7345E-01  0.1485E+01  0.6373E+00
      6.787  0.6345E-02  0.1037E-01  0.1091E-01  0.7169E-01  0.1626E+01  0.6596E+00
      6.863  0.6816E-02  0.9517E-02  0.1086E-01  0.6825E-01  0.1603E+01  0.6827E+00
      6.938  0.7652E-02  0.9009E-02  0.1173E-01  0.6339E-01  0.1358E+01  0.7145E+00
      7.014  0.8573E-02  0.8834E-02  0.1355E-01  0.5749E-01  0.9698E+00  0.7542E+00
      7.090  0.9182E-02  0.8569E-02  0.1683E-01  0.5165E-01  0.5843E+00  0.7877E+00