       N       E                     dE             d eps       ncg     rms          rms(c)
DAV:   1     0.902112337511E+04    0.90211E+04   -0.38303E+05 22176   0.195E+03
DAV:   2     0.509404434333E+03   -0.85117E+04   -0.79906E+04 22176   0.418E+02
DAV:   3    -0.754774398701E+03   -0.12642E+04   -0.10036E+04 22176   0.201E+02
DAV:   4    -0.843652426850E+03   -0.88878E+02   -0.83211E+02 23481   0.620E+01
DAV:   5    -0.845072215696E+03   -0.14198E+01   -0.14145E+01 24021   0.800E+00    0.113E+02
RMM:   6    -0.939957450096E+03   -0.94885E+02   -0.11954E+03 22176   0.779E+01    0.181E+02
RMM:   7    -0.950515815970E+03   -0.10558E+02   -0.37068E+02 22176   0.400E+01    0.194E+02
RMM:   8    -0.894173593230E+03    0.56342E+02   -0.15048E+02 22176   0.255E+01    0.195E+02
RMM:   9    -0.760161527035E+03    0.13401E+03   -0.98045E+01 22176   0.207E+01    0.945E+01
RMM:  10    -0.828713774292E+03   -0.68552E+02   -0.85080E+01 22176   0.179E+01    0.136E+02
RMM:  11    -0.804398503433E+03    0.24315E+02   -0.58420E+01 22176   0.152E+01    0.119E+02
RMM:  12    -0.747623993014E+03    0.56775E+02   -0.51229E+01 22176   0.148E+01    0.685E+01
RMM:  13    -0.734303626266E+03    0.13320E+02   -0.17299E+01 22176   0.845E+00    0.536E+01
RMM:  14    -0.733615000154E+03    0.68863E+00   -0.10965E+01 22176   0.636E+00    0.516E+01
RMM:  15    -0.732829028935E+03    0.78597E+00   -0.66857E+00 22176   0.528E+00    0.407E+01
RMM:  16    -0.731146922949E+03    0.16821E+01   -0.35949E+00 22176   0.384E+00    0.293E+01
RMM:  17    -0.732988604114E+03   -0.18417E+01   -0.25716E+00 22176   0.311E+00    0.287E+01
RMM:  18    -0.733413206037E+03   -0.42460E+00   -0.22502E+00 22176   0.286E+00    0.238E+01
RMM:  19    -0.733842432422E+03   -0.42923E+00   -0.17982E+00 22176   0.255E+00    0.212E+01
RMM:  20    -0.735849979294E+03   -0.20075E+01   -0.20269E+00 22176   0.274E+00    0.258E+01
RMM:  21    -0.735144526990E+03    0.70545E+00   -0.15559E+00 22176   0.246E+00    0.190E+01
RMM:  22    -0.735144462733E+03    0.64258E-04   -0.82030E-01 22176   0.176E+00    0.166E+01
RMM:  23    -0.735858153473E+03   -0.71369E+00   -0.77907E-01 22176   0.171E+00    0.181E+01
RMM:  24    -0.735481523150E+03    0.37663E+00   -0.52821E-01 22176   0.148E+00    0.119E+01
RMM:  25    -0.735753679888E+03   -0.27216E+00   -0.27295E-01 22176   0.998E-01    0.131E+01
RMM:  26    -0.736093488846E+03   -0.33981E+00   -0.31780E-01 22176   0.108E+00    0.120E+01
RMM:  27    -0.736110783711E+03   -0.17295E-01   -0.22254E-01 22176   0.926E-01    0.105E+01
RMM:  28    -0.736649638752E+03   -0.53886E+00   -0.25642E-01 22176   0.939E-01    0.127E+01
RMM:  29    -0.736555499515E+03    0.94139E-01   -0.22052E-01 22176   0.921E-01    0.970E+00
RMM:  30    -0.736998641674E+03   -0.44314E+00   -0.38680E-01 22176   0.117E+00    0.114E+01
RMM:  31    -0.736882997843E+03    0.11564E+00   -0.39751E-01 22176   0.122E+00    0.825E+00
RMM:  32    -0.736822632412E+03    0.60365E-01   -0.21802E-01 22176   0.902E-01    0.687E+00
RMM:  33    -0.736755538836E+03    0.67094E-01   -0.11154E-01 22176   0.658E-01    0.520E+00
RMM:  34    -0.736733098154E+03    0.22441E-01   -0.75070E-02 22176   0.540E-01    0.422E+00
RMM:  35    -0.736758110688E+03   -0.25013E-01   -0.41917E-02 22176   0.387E-01    0.366E+00
RMM:  36    -0.736761929778E+03   -0.38191E-02   -0.37424E-02 22176   0.381E-01    0.322E+00
RMM:  37    -0.736782515114E+03   -0.20585E-01   -0.23502E-02 22176   0.283E-01    0.291E+00
RMM:  38    -0.736789657443E+03   -0.71423E-02   -0.16711E-02 22176   0.250E-01    0.275E+00
RMM:  39    -0.736815239998E+03   -0.25583E-01   -0.20570E-02 22176   0.253E-01    0.260E+00
RMM:  40    -0.736821916359E+03   -0.66764E-02   -0.15609E-02 22176   0.243E-01    0.249E+00
RMM:  41    -0.736829883216E+03   -0.79669E-02   -0.18370E-02 22176   0.255E-01    0.236E+00
RMM:  42    -0.736823681880E+03    0.62013E-02   -0.12678E-02 22176   0.224E-01    0.187E+00
RMM:  43    -0.736832488148E+03   -0.88063E-02   -0.10666E-02 22176   0.193E-01    0.163E+00
RMM:  44    -0.736828069644E+03    0.44185E-02   -0.61436E-03 22176   0.156E-01    0.103E+00
RMM:  45    -0.736830577362E+03   -0.25077E-02   -0.38103E-03 22176   0.115E-01    0.933E-01
RMM:  46    -0.736828793116E+03    0.17842E-02   -0.20790E-03 22176   0.908E-02    0.527E-01
RMM:  47    -0.736830296883E+03   -0.15038E-02   -0.12397E-03 22176   0.636E-02    0.607E-01
RMM:  48    -0.736829835339E+03    0.46154E-03   -0.86190E-04 22176   0.581E-02    0.434E-01
RMM:  49    -0.736830181053E+03   -0.34571E-03   -0.70566E-04 22176   0.500E-02    0.412E-01
RMM:  50    -0.736829844547E+03    0.33651E-03   -0.62211E-04 22176   0.497E-02    0.268E-01
RMM:  51    -0.736829894648E+03   -0.50101E-04   -0.37990E-04 22176   0.379E-02    0.225E-01
RMM:  52    -0.736829789675E+03    0.10497E-03   -0.22962E-04 22176   0.307E-02    0.139E-01
RMM:  53    -0.736829813527E+03   -0.23852E-04   -0.10780E-04 22174   0.200E-02    0.134E-01
RMM:  54    -0.736829803908E+03    0.96188E-05   -0.69119E-05 21288   0.167E-02
   1 F= -.73682980E+03 E0= -.73686031E+03  d E =-.736830E+03  mag=   164.7377
       N       E                     dE             d eps       ncg     rms          rms(c)
DAV:   1    -0.734179320197E+03    0.26505E+01   -0.89339E+02 22194   0.346E+01    0.226E+01
RMM:   2    -0.762609911472E+03   -0.28431E+02   -0.54509E+01 22176   0.165E+01    0.798E+01
RMM:   3    -0.743219744582E+03    0.19390E+02   -0.20811E+01 22176   0.930E+00    0.271E+01
RMM:   4    -0.745296524723E+03   -0.20768E+01   -0.60972E+00 22176   0.487E+00    0.345E+01
RMM:   5    -0.740417844889E+03    0.48787E+01   -0.17767E+00 22176   0.283E+00    0.114E+01
RMM:   6    -0.740373284246E+03    0.44561E-01   -0.76506E-01 22176   0.176E+00    0.107E+01
RMM:   7    -0.740249068560E+03    0.12422E+00   -0.21174E-01 22176   0.897E-01    0.885E+00
RMM:   8    -0.740012135700E+03    0.23693E+00   -0.15545E-01 22176   0.817E-01    0.345E+00
RMM:   9    -0.740069854936E+03   -0.57719E-01   -0.98524E-02 22176   0.598E-01    0.542E+00
RMM:  10    -0.740019857426E+03    0.49998E-01   -0.81712E-02 22176   0.552E-01    0.396E+00
RMM:  11    -0.739976114932E+03    0.43742E-01   -0.55529E-02 22176   0.457E-01    0.220E+00
RMM:  12    -0.739978385948E+03   -0.22710E-02   -0.26647E-02 22176   0.309E-01    0.203E+00
RMM:  13    -0.739960705819E+03    0.17680E-01   -0.16560E-02 22176   0.256E-01    0.768E-01
RMM:  14    -0.739965571947E+03   -0.48661E-02   -0.67313E-03 22176   0.157E-01    0.116E+00
RMM:  15    -0.739960570770E+03    0.50012E-02   -0.36465E-03 22176   0.124E-01    0.579E-01
RMM:  16    -0.739960124358E+03    0.44641E-03   -0.10532E-03 22176   0.629E-02    0.373E-01
RMM:  17    -0.739960205611E+03   -0.81253E-04   -0.62459E-04 22176   0.496E-02    0.305E-01
RMM:  18    -0.739959891892E+03    0.31372E-03   -0.42658E-04 22176   0.419E-02    0.123E-01
RMM:  19    -0.739960059653E+03   -0.16776E-03   -0.18466E-04 22176   0.261E-02    0.184E-01
RMM:  20    -0.739959945089E+03    0.11456E-03   -0.11007E-04 22099   0.216E-02    0.861E-02
RMM:  21    -0.739959990603E+03   -0.45513E-04   -0.56193E-05 20532   0.144E-02    0.113E-01
RMM:  22    -0.739959955617E+03    0.34985E-04   -0.33815E-05 16093   0.123E-02    0.403E-02
RMM:  23    -0.739959955866E+03   -0.24833E-06   -0.12727E-05 12055   0.743E-03
   2 F= -.73995996E+03 E0= -.73997638E+03  d E =-.313015E+01  mag=   166.8893
       N       E                     dE             d eps       ncg     rms          rms(c)
DAV:   1    -0.738653544893E+03    0.13064E+01   -0.27967E+02 22203   0.190E+01    0.121E+01
RMM:   2    -0.744481051569E+03   -0.58275E+01   -0.10841E+01 22176   0.750E+00    0.347E+01
RMM:   3    -0.741784787952E+03    0.26963E+01   -0.48719E+00 22176   0.446E+00    0.175E+01
RMM:   4    -0.742526995002E+03   -0.74221E+00   -0.19081E+00 22176   0.263E+00    0.250E+01
RMM:   5    -0.740553681601E+03    0.19733E+01   -0.60985E-01 22176   0.163E+00    0.554E+00
RMM:   6    -0.740559320012E+03   -0.56384E-02   -0.22073E-01 22176   0.938E-01    0.623E+00
RMM:   7    -0.740483135352E+03    0.76185E-01   -0.64363E-02 22176   0.504E-01    0.399E+00
RMM:   8    -0.740443177146E+03    0.39958E-01   -0.35765E-02 22176   0.388E-01    0.232E+00
RMM:   9    -0.740467899749E+03   -0.24723E-01   -0.29319E-02 22176   0.325E-01    0.324E+00
RMM:  10    -0.740436286106E+03    0.31614E-01   -0.23397E-02 22176   0.302E-01    0.179E+00
RMM:  11    -0.740432978289E+03    0.33078E-02   -0.12794E-02 22176   0.215E-01    0.130E+00
RMM:  12    -0.740429486705E+03    0.34916E-02   -0.58586E-03 22176   0.147E-01    0.747E-01
RMM:  13    -0.740427592380E+03    0.18943E-02   -0.35590E-03 22176   0.116E-01    0.460E-01
RMM:  14    -0.740428597359E+03   -0.10050E-02   -0.15714E-03 22176   0.764E-02    0.597E-01
RMM:  15    -0.740427114054E+03    0.14833E-02   -0.90337E-04 22176   0.615E-02    0.166E-01
RMM:  16    -0.740427234117E+03   -0.12006E-03   -0.32830E-04 22176   0.345E-02    0.223E-01
RMM:  17    -0.740427138584E+03    0.95533E-04   -0.15782E-04 22176   0.254E-02    0.116E-01
RMM:  18    -0.740427123723E+03    0.14861E-04   -0.99241E-05 22118   0.199E-02    0.952E-02
RMM:  19    -0.740427124193E+03   -0.46984E-06   -0.35861E-05 17573   0.125E-02
   3 F= -.74042712E+03 E0= -.74043935E+03  d E =-.359732E+01  mag=   167.6489
       N       E                     dE             d eps       ncg     rms          rms(c)
DAV:   1    -0.740343789810E+03    0.83334E-01   -0.75185E+01 22320   0.988E+00    0.493E+00
RMM:   2    -0.741035789182E+03   -0.69200E+00   -0.13486E+00 22176   0.271E+00    0.971E+00
RMM:   3    -0.740955658979E+03    0.80130E-01   -0.63014E-01 22176   0.159E+00    0.785E+00
RMM:   4    -0.740836771366E+03    0.11889E+00   -0.17079E-01 22176   0.856E-01    0.616E+00
RMM:   5    -0.740703797417E+03    0.13297E+00   -0.64736E-02 22176   0.524E-01    0.263E+00
RMM:   6    -0.740689597450E+03    0.14200E-01   -0.13584E-02 22176   0.223E-01    0.121E+00
RMM:   7    -0.740692051318E+03   -0.24539E-02   -0.81164E-03 22176   0.176E-01    0.147E+00
RMM:   8    -0.740682719633E+03    0.93317E-02   -0.61756E-03 22176   0.159E-01    0.580E-01
RMM:   9    -0.740684629348E+03   -0.19097E-02   -0.58475E-03 22176   0.145E-01    0.889E-01
RMM:  10    -0.740681541519E+03    0.30878E-02   -0.38755E-03 22176   0.115E-01    0.474E-01
RMM:  11    -0.740680706743E+03    0.83478E-03   -0.12398E-03 22176   0.663E-02    0.263E-01
RMM:  12    -0.740680778586E+03   -0.71843E-04   -0.41942E-04 22176   0.394E-02    0.266E-01
RMM:  13    -0.740680456597E+03    0.32199E-03   -0.19583E-04 22176   0.292E-02    0.706E-02
RMM:  14    -0.740680453887E+03    0.27106E-05   -0.39305E-05 18260   0.122E-02
   4 F= -.74068045E+03 E0= -.74069270E+03  d E =-.253330E+00  mag=   167.8474
       N       E                     dE             d eps       ncg     rms          rms(c)
DAV:   1    -0.740346181902E+03    0.33427E+00   -0.96005E+01 22176   0.112E+01    0.559E+00
RMM:   2    -0.741230778174E+03   -0.88460E+00   -0.17581E+00 22176   0.309E+00    0.110E+01
RMM:   3    -0.741135697255E+03    0.95081E-01   -0.81462E-01 22176   0.181E+00    0.899E+00
RMM:   4    -0.741013510362E+03    0.12219E+00   -0.22413E-01 22176   0.978E-01    0.756E+00
RMM:   5    -0.740808795332E+03    0.20472E+00   -0.91735E-02 22176   0.620E-01    0.287E+00
RMM:   6    -0.740791249276E+03    0.17546E-01   -0.19567E-02 22176   0.270E-01    0.136E+00
RMM:   7    -0.740794658648E+03   -0.34094E-02   -0.10749E-02 22176   0.203E-01    0.172E+00
RMM:   8    -0.740782214433E+03    0.12444E-01   -0.80098E-03 22176   0.183E-01    0.672E-01
RMM:   9    -0.740785008223E+03   -0.27938E-02   -0.77210E-03 22176   0.166E-01    0.104E+00
RMM:  10    -0.740780530326E+03    0.44779E-02   -0.54025E-03 22176   0.137E-01    0.532E-01
RMM:  11    -0.740779728355E+03    0.80197E-03   -0.15867E-03 22176   0.748E-02    0.346E-01
RMM:  12    -0.740779680726E+03    0.47629E-04   -0.50852E-04 22176   0.435E-02    0.291E-01
RMM:  13    -0.740779292764E+03    0.38796E-03   -0.25079E-04 22176   0.328E-02    0.783E-02
RMM:  14    -0.740779303661E+03   -0.10897E-04   -0.58101E-05 20918   0.146E-02    0.868E-02
RMM:  15    -0.740779288671E+03    0.14990E-04   -0.28476E-05 13883   0.112E-02    0.636E-02
RMM:  16    -0.740779277890E+03    0.10782E-04   -0.22790E-05 13238   0.105E-02    0.427E-02
RMM:  17    -0.740779282580E+03   -0.46901E-05   -0.11049E-05 12012   0.704E-03
   5 F= -.74077928E+03 E0= -.74079161E+03  d E =-.352158E+00  mag=   168.0722
       N       E                     dE             d eps       ncg     rms          rms(c)
DAV:   1    -0.740737990955E+03    0.41287E-01   -0.28159E+01 22248   0.604E+00    0.266E+00
RMM:   2    -0.740942426058E+03   -0.20444E+00   -0.42598E-01 22176   0.154E+00    0.485E+00
RMM:   3    -0.740925737576E+03    0.16688E-01   -0.15652E-01 22176   0.796E-01    0.455E+00
RMM:   4    -0.740932928391E+03   -0.71908E-02   -0.64027E-02 22176   0.501E-01    0.505E+00
RMM:   5    -0.740849363650E+03    0.83565E-01   -0.28161E-02 22176   0.342E-01    0.142E+00
RMM:   6    -0.740843138143E+03    0.62255E-02   -0.51809E-03 22176   0.140E-01    0.494E-01
RMM:   7    -0.740844385377E+03   -0.12472E-02   -0.24505E-03 22176   0.941E-02    0.793E-01
RMM:   8    -0.740841337834E+03    0.30475E-02   -0.20919E-03 22176   0.899E-02    0.363E-01
RMM:   9    -0.740842058737E+03   -0.72090E-03   -0.22562E-03 22176   0.900E-02    0.540E-01
RMM:  10    -0.740840911275E+03    0.11475E-02   -0.13564E-03 22176   0.696E-02    0.257E-01
RMM:  11    -0.740840687701E+03    0.22357E-03   -0.37875E-04 22176   0.371E-02    0.110E-01
RMM:  12    -0.740840683569E+03    0.41312E-05   -0.66037E-05 21164   0.160E-02
   6 F= -.74084068E+03 E0= -.74085290E+03  d E =-.614010E-01  mag=   168.1130
       N       E                     dE             d eps       ncg     rms          rms(c)
DAV:   1    -0.740795898873E+03    0.44789E-01   -0.15997E+01 22284   0.455E+00    0.200E+00
RMM:   2    -0.740910804036E+03   -0.11491E+00   -0.23766E-01 22176   0.115E+00    0.361E+00
RMM:   3    -0.740902201511E+03    0.86025E-02   -0.88883E-02 22176   0.600E-01    0.337E+00
RMM:   4    -0.740903251241E+03   -0.10497E-02   -0.35400E-02 22176   0.375E-01    0.375E+00
RMM:   5    -0.740859485185E+03    0.43766E-01   -0.14926E-02 22176   0.249E-01    0.112E+00
RMM:   6    -0.740855654380E+03    0.38308E-02   -0.28336E-03 22176   0.104E-01    0.354E-01
RMM:   7    -0.740856394467E+03   -0.74009E-03   -0.13817E-03 22176   0.704E-02    0.591E-01
RMM:   8    -0.740854672755E+03    0.17217E-02   -0.12023E-03 22176   0.672E-02    0.261E-01
RMM:   9    -0.740855027593E+03   -0.35484E-03   -0.12451E-03 22176   0.668E-02    0.384E-01
RMM:  10    -0.740854473272E+03    0.55432E-03   -0.68227E-04 22176   0.496E-02    0.187E-01
RMM:  11    -0.740854336990E+03    0.13628E-03   -0.19592E-04 22176   0.268E-02    0.689E-02
RMM:  12    -0.740854344603E+03   -0.76131E-05   -0.30987E-05 16164   0.111E-02
   7 F= -.74085434E+03 E0= -.74086648E+03  d E =-.750620E-01  mag=   168.1389
       N       E                     dE             d eps       ncg     rms          rms(c)
DAV:   1    -0.740842131904E+03    0.12205E-01   -0.60613E+00 22329   0.280E+00    0.128E+00
RMM:   2    -0.740880699942E+03   -0.38568E-01   -0.87876E-02 22176   0.694E-01    0.215E+00
RMM:   3    -0.740895946752E+03   -0.15247E-01   -0.42397E-02 22176   0.412E-01    0.301E+00
RMM:   4    -0.740888170855E+03    0.77759E-02   -0.18249E-02 22176   0.258E-01    0.280E+00
RMM:   5    -0.740867975855E+03    0.20195E-01   -0.66813E-03 22176   0.170E-01    0.642E-01
RMM:   6    -0.740866256949E+03    0.17189E-02   -0.11759E-03 22176   0.657E-02    0.204E-01
RMM:   7    -0.740866528077E+03   -0.27113E-03   -0.61711E-04 22176   0.465E-02    0.360E-01
RMM:   8    -0.740865903868E+03    0.62421E-03   -0.45215E-04 22176   0.420E-02    0.158E-01
RMM:   9    -0.740866097180E+03   -0.19331E-03   -0.37918E-04 22176   0.363E-02    0.274E-01
RMM:  10    -0.740865838856E+03    0.25832E-03   -0.26042E-04 22176   0.304E-02    0.131E-01
RMM:  11    -0.740865765528E+03    0.73328E-04   -0.83006E-05 21671   0.176E-02    0.403E-02
RMM:  12    -0.740865773997E+03   -0.84690E-05   -0.17203E-05 12511   0.843E-03
   8 F= -.74086577E+03 E0= -.74087777E+03  d E =-.114294E-01  mag=   168.1420
       N       E                     dE             d eps       ncg     rms          rms(c)
DAV:   1    -0.740857783728E+03    0.79818E-02   -0.24830E+00 22356   0.179E+00    0.817E-01
RMM:   2    -0.740873304288E+03   -0.15521E-01   -0.35860E-02 22176   0.443E-01    0.133E+00
RMM:   3    -0.740879584244E+03   -0.62800E-02   -0.17518E-02 22176   0.265E-01    0.188E+00
RMM:   4    -0.740876434766E+03    0.31495E-02   -0.71649E-03 22176   0.163E-01    0.177E+00
RMM:   5    -0.740868375546E+03    0.80592E-02   -0.27353E-03 22176   0.108E-01    0.415E-01
RMM:   6    -0.740867674747E+03    0.70080E-03   -0.45490E-04 22176   0.408E-02    0.125E-01
RMM:   7    -0.740867797602E+03   -0.12285E-03   -0.26622E-04 22176   0.306E-02    0.234E-01
RMM:   8    -0.740867521150E+03    0.27645E-03   -0.19876E-04 22176   0.276E-02    0.860E-02
RMM:   9    -0.740867606761E+03   -0.85610E-04   -0.14966E-04 22172   0.227E-02    0.166E-01
RMM:  10    -0.740867508215E+03    0.98545E-04   -0.94245E-05 21954   0.185E-02    0.825E-02
RMM:  11    -0.740867477921E+03    0.30294E-04   -0.27482E-05 15533   0.105E-02    0.216E-02
RMM:  12    -0.740867481179E+03   -0.32581E-05   -0.72385E-06 11670   0.561E-03
   9 F= -.74086748E+03 E0= -.74087939E+03  d E =-.131366E-01  mag=   168.1408
       N       E                     dE             d eps       ncg     rms          rms(c)
DAV:   1    -0.740860991635E+03    0.64863E-02   -0.24181E+00 22311   0.176E+00    0.835E-01
RMM:   2    -0.740873461511E+03   -0.12470E-01   -0.31697E-02 22176   0.412E-01    0.938E-01
RMM:   3    -0.740883432804E+03   -0.99713E-02   -0.15772E-02 22176   0.250E-01    0.160E+00
RMM:   4    -0.740874235027E+03    0.91978E-02   -0.53369E-03 22176   0.157E-01    0.994E-01
RMM:   5    -0.740871593562E+03    0.26415E-02   -0.12432E-03 22176   0.702E-02    0.313E-01
RMM:   6    -0.740871332986E+03    0.26058E-03   -0.22435E-04 22176   0.282E-02    0.143E-01
RMM:   7    -0.740871387729E+03   -0.54743E-04   -0.22724E-04 22176   0.281E-02    0.219E-01
RMM:   8    -0.740871137677E+03    0.25005E-03   -0.21689E-04 22176   0.279E-02    0.776E-02
RMM:   9    -0.740871225119E+03   -0.87442E-04   -0.14156E-04 22160   0.220E-02    0.160E-01
RMM:  10    -0.740871128083E+03    0.97036E-04   -0.74209E-05 21744   0.166E-02    0.692E-02
RMM:  11    -0.740871105813E+03    0.22269E-04   -0.20485E-05 12976   0.926E-03    0.181E-02
RMM:  12    -0.740871108049E+03   -0.22356E-05   -0.50341E-06 11574   0.481E-03
  10 F= -.74087111E+03 E0= -.74088289E+03  d E =-.362687E-02  mag=   168.1432
       N       E                     dE             d eps       ncg     rms          rms(c)
DAV:   1    -0.740862829790E+03    0.82760E-02   -0.21527E+00 22293   0.166E+00    0.789E-01
RMM:   2    -0.740874087032E+03   -0.11257E-01   -0.28337E-02 22176   0.390E-01    0.905E-01
RMM:   3    -0.740882850020E+03   -0.87630E-02   -0.14307E-02 22176   0.239E-01    0.154E+00
RMM:   4    -0.740875024589E+03    0.78254E-02   -0.49073E-03 22176   0.150E-01    0.103E+00
RMM:   5    -0.740872291555E+03    0.27330E-02   -0.11897E-03 22176   0.685E-02    0.297E-01
RMM:   6    -0.740872039170E+03    0.25238E-03   -0.21534E-04 22176   0.277E-02    0.130E-01
RMM:   7    -0.740872095210E+03   -0.56040E-04   -0.20544E-04 22176   0.267E-02    0.208E-01
RMM:   8    -0.740871867293E+03    0.22792E-03   -0.19769E-04 22176   0.266E-02    0.711E-02
RMM:   9    -0.740871949817E+03   -0.82524E-04   -0.12467E-04 22125   0.207E-02    0.152E-01
RMM:  10    -0.740871861281E+03    0.88536E-04   -0.64753E-05 21494   0.155E-02    0.670E-02
RMM:  11    -0.740871840340E+03    0.20941E-04   -0.19133E-05 12624   0.900E-03    0.163E-02
RMM:  12    -0.740871842111E+03   -0.17704E-05   -0.44088E-06 11485   0.452E-03
  11 F= -.74087184E+03 E0= -.74088350E+03  d E =-.436093E-02  mag=   168.1460
       N       E                     dE             d eps       ncg     rms          rms(c)
DAV:   1    -0.740871563319E+03    0.27702E-03   -0.81741E-02 22410   0.324E-01    0.153E-01
RMM:   2    -0.740871979858E+03   -0.41654E-03   -0.10629E-03 22176   0.755E-02    0.173E-01
RMM:   3    -0.740872347288E+03   -0.36743E-03   -0.52096E-04 22176   0.457E-02    0.326E-01
RMM:   4    -0.740872073691E+03    0.27360E-03   -0.19634E-04 22165   0.291E-02    0.243E-01
RMM:   5    -0.740871918653E+03    0.15504E-03   -0.56726E-05 19976   0.152E-02    0.559E-02
RMM:   6    -0.740871908183E+03    0.10470E-04   -0.97631E-06 12110   0.615E-03    0.260E-02
RMM:   7    -0.740871910049E+03   -0.18667E-05   -0.84263E-06 11820   0.585E-03
  12 F= -.74087191E+03 E0= -.74088360E+03  d E =-.442887E-02  mag=   168.1457
       N       E                     dE             d eps       ncg     rms          rms(c)
DAV:   1    -0.740867792338E+03    0.41158E-02   -0.13223E+00 22284   0.130E+00    0.637E-01
RMM:   2    -0.740875966211E+03   -0.81739E-02   -0.18143E-02 22176   0.308E-01    0.876E-01
RMM:   3    -0.740882164025E+03   -0.61978E-02   -0.93489E-03 22176   0.194E-01    0.163E+00
RMM:   4    -0.740879130127E+03    0.30339E-02   -0.40337E-03 22176   0.122E-01    0.132E+00
RMM:   5    -0.740873884955E+03    0.52452E-02   -0.19028E-03 22176   0.904E-02    0.225E-01
RMM:   6    -0.740873698288E+03    0.18667E-03   -0.21517E-04 22176   0.274E-02    0.100E-01
RMM:   7    -0.740873750867E+03   -0.52579E-04   -0.12463E-04 22176   0.208E-02    0.172E-01
RMM:   8    -0.740873596860E+03    0.15401E-03   -0.10534E-04 22168   0.198E-02    0.592E-02
RMM:   9    -0.740873642521E+03   -0.45661E-04   -0.93590E-05 21956   0.179E-02    0.123E-01
RMM:  10    -0.740873584109E+03    0.58413E-04   -0.60455E-05 21016   0.149E-02    0.489E-02
RMM:  11    -0.740873574459E+03    0.96491E-05   -0.12482E-05 12022   0.730E-03
  13 F= -.74087357E+03 E0= -.74088522E+03  d E =-.166441E-02  mag=   168.1462
