SQS-NiFe                                
           1
     5.356500    0.000000   -5.356500
     7.142000    5.356500    8.927500
    -1.785500  -14.284000    1.785500
   Fe   Ni
  54  54
Direct configuration=     1
   0.16602378  0.11258715  0.91906770
   0.06088371  0.44073602  0.91883657
   0.25741179  0.00185353  0.75291580
   0.48517125  0.11139479  0.91412958
   0.14363363  0.33321176  0.75522203
   0.37821381  0.44555206  0.92103416
   0.03170855  0.67027255  0.75785207
   0.26659618  0.77970316  0.91349060
   0.57004188  0.00491288  0.75196030
   0.04233676  0.32685495  0.49563438
   0.64863266  0.21980929  0.83291848
   0.47053919  0.33585019  0.75087797
   0.54165835  0.55313921  0.83393850
   0.60379518  0.77079672  0.91634412
   0.50336128  0.99589134  0.49494763
   0.33394902  0.11654350  0.41996613
   0.14652778  0.22564896  0.33522970
   0.56797973  0.22520697  0.57948118
   0.03534193  0.55089317  0.33413526
   0.98389172  0.22993016  0.83775300
   0.62262779  0.43915373  0.67068903
   0.27064592  0.66797376  0.49304385
   0.10811117  0.77625887  0.42184134
   0.34920352  0.88770617  0.58032957
   0.93498322  0.77987578  0.91487534
   0.00980389  0.99644738  0.99618574
   0.82595140  0.00542019  0.49742683
   0.66048098  0.11348474  0.42025404
   0.47889839  0.22206056  0.33805695
   0.29651005  0.33290974  0.25030518
   0.13015057  0.44768069  0.16792310
   0.89260761  0.22061843  0.57540695
   0.72627635  0.32679607  0.49653169
   0.36278861  0.55405318  0.33276494
   0.02255416  0.77031035  0.16156673
   0.42773866  0.78123382  0.41947006
   0.32482887  0.00294106  0.99841482
   0.40283096  0.22253194  0.07972765
   0.22392485  0.33101401  0.99817402
   0.98668350  0.11739012  0.41937110
   0.82196124  0.22530769  0.33963256
   0.28175563  0.55284346  0.08152661
   0.88162534  0.44213670  0.41180082
   0.71240237  0.55255715  0.33428000
   0.34409958  0.77628407  0.16749777
   0.94896315  0.66357488  0.49126641
   0.58780825  0.88924158  0.33669635
   0.72734076  0.23028544  0.08720217
   0.55083765  0.33053723  0.00112493
   0.97486726  0.33488856  0.25091791
   0.79876462  0.44584758  0.16270257
   0.62024510  0.55098292  0.07919792
   0.95405560  0.55649744  0.08520872
   0.77490860  0.66786482  0.00091542
   0.07107962  0.11350933  0.66843477
   0.31619434  0.22372549  0.83494443
   0.20460774  0.55276677  0.83329915
   0.09524234  0.89036887  0.83343774
   0.16604774  0.99894195  0.49841534
   0.40945896  0.11109067  0.66643808
   0.23070552  0.22278884  0.58293294
   0.82495000  0.11300140  0.91975050
   0.29589610  0.44293638  0.66613500
   0.11692159  0.55635609  0.58163879
   0.71142823  0.44568449  0.91791251
   0.36063257  0.66647782  0.75309300
   0.18509998  0.77783297  0.66571291
   0.01298022  0.88927950  0.58260515
   0.42905754  0.89227827  0.83720013
   0.08355346  0.00132430  0.25332617
   0.91754009  0.00315669  0.75211912
   0.73798067  0.11128106  0.66467007
   0.39142291  0.33248262  0.49966081
   0.21146754  0.44390006  0.41521566
   0.80564453  0.33064969  0.74968274
   0.45677020  0.55543739  0.58353603
   0.86870455  0.55506156  0.83353754
   0.69637556  0.66583883  0.75167027
   0.51631248  0.77878802  0.66511095
   0.75856127  0.89070273  0.83530604
   0.41889453  0.00117992  0.25272702
   0.24163075  0.11214916  0.16579378
   0.06819194  0.22604910  0.08442939
   0.54685572  0.44196016  0.41208934
   0.19385971  0.66470219  0.25032889
   0.96079448  0.44282192  0.66652619
   0.78744505  0.55252678  0.58157499
   0.60934310  0.66629526  0.49598395
   0.26124533  0.88772069  0.33352266
   0.85391989  0.77414944  0.66503135
   0.67491488  0.89155524  0.58349124
   0.75025034  0.00200626  0.25263102
   0.57287584  0.11446113  0.16752075
   0.63988124  0.33384440  0.25025403
   0.46063087  0.44445748  0.16584923
   0.10835630  0.66545221  0.99915024
   0.52591891  0.66614592  0.25056858
   0.17585032  0.88674029  0.08092331
   0.76897208  0.77693973  0.41606868
   0.66641228  0.00300718  0.00185034
   0.90905416  0.11349582  0.16586939
   0.44511927  0.66669186  0.00085584
   0.86311661  0.66330393  0.24992268
   0.68539320  0.77515131  0.16691674
   0.50726016  0.88732636  0.08185787
   0.92311434  0.88841892  0.33388059
   0.88754347  0.33437161  0.99882990
   0.84358570  0.88591546  0.08170191
Direct configuration=     2
   0.15857184  0.11224782  0.91668442
   0.05097287  0.44482493  0.91802193
   0.25079823  0.00077517  0.75053730
   0.49157326  0.11095577  0.91623078
   0.14171270  0.33351764  0.75141659
   0.38171999  0.44545230  0.91900430
   0.02820077  0.66678727  0.75230050
   0.26930505  0.77924753  0.91658853
   0.57889943  0.00189852  0.75050416
   0.05220769  0.33301433  0.49998986
   0.64832708  0.22190181  0.83346627
   0.47101159  0.33368786  0.75069940
   0.53774405  0.55374811  0.83412370
   0.60291997  0.77525152  0.91649894
   0.50048849  0.99921655  0.49863478
   0.32710563  0.11249132  0.41791045
   0.14759942  0.22260329  0.33318447
   0.56630753  0.22389814  0.58254514
   0.03590582  0.55229950  0.33077324
   0.98201905  0.22311894  0.83474218
   0.62713913  0.44169544  0.66853381
   0.27785356  0.66565964  0.49895342
   0.10120193  0.77941323  0.41717577
   0.34625152  0.88966856  0.58313379
   0.93417403  0.77829088  0.91630778
   0.00265318  0.99928594  0.99856768
   0.83191969  0.00142607  0.49903092
   0.65754752  0.11243260  0.41653177
   0.48041395  0.22293432  0.33537133
   0.30214318  0.33294819  0.24990888
   0.12847502  0.44505907  0.16597761
   0.89584411  0.22274622  0.58175325
   0.72384628  0.33136128  0.49828317
   0.36789779  0.55448276  0.33251948
   0.01906636  0.77449772  0.16461225
   0.43468393  0.77861975  0.41740169
   0.33266563  0.00177500  0.99986519
   0.40018278  0.22344071  0.08429443
   0.22297888  0.33118481  0.00018651
   0.99048661  0.11122522  0.41622873
   0.81520605  0.22248580  0.33333619
   0.28587539  0.55503836  0.08424113
   0.88015995  0.44290708  0.41541254
   0.70598642  0.55266385  0.33200073
   0.34906023  0.77656530  0.16645189
   0.94574203  0.66613027  0.49823964
   0.59084978  0.88806814  0.33337157
   0.73251076  0.22583851  0.08519919
   0.55459237  0.33236801 -0.00036559
   0.97190745  0.33291907  0.24926588
   0.79632829  0.44533977  0.16454752
   0.61944610  0.55405744  0.08262147
   0.95360477  0.55443680  0.08332958
   0.77685020  0.66649425  0.00003574
   0.07176186  0.11338816  0.66791403
   0.31599916  0.22266462  0.83299098
   0.20517551  0.55361689  0.83322036
   0.09287544  0.88976273  0.83133695
   0.16585469  0.99988993  0.49882516
   0.40718800  0.11208403  0.66530302
   0.23116576  0.22287766  0.58349363
   0.82513840  0.11253853  0.91912194
   0.29458228  0.44362166  0.66615334
   0.11811798  0.55557680  0.58205723
   0.71371836  0.44365924  0.91699255
   0.36132838  0.66639177  0.75158347
   0.18553744  0.77778833  0.66552360
   0.01151136  0.88950936  0.58354718
   0.42889538  0.89015480  0.83566379
   0.08377583  0.00150133  0.25277332
   0.91774245  0.00326732  0.75208668
   0.73905412  0.11180893  0.66565839
   0.38992793  0.33471110  0.50069532
   0.21406904  0.44460940  0.41797588
   0.80625869  0.33156002  0.74994677
   0.45561947  0.55561261  0.58288527
   0.87002025  0.55436734  0.83360371
   0.69575680  0.66582383  0.75020893
   0.51724520  0.77819746  0.66549308
   0.75856250  0.89034409  0.83457664
   0.41736053  0.00091661  0.25195068
   0.24080453  0.11227468  0.16672299
   0.06611204  0.22464960  0.08380857
   0.54612519  0.44293285  0.41390736
   0.19417597  0.66598585  0.25098615
   0.96109166  0.44299413  0.66671607
   0.78739794  0.55309229  0.58172238
   0.60993523  0.66643045  0.49764607
   0.25779851  0.88850166  0.33326386
   0.85337539  0.77480443  0.66499236
   0.67671048  0.89075540  0.58382156
   0.75057042  0.00178699  0.25196634
   0.57386467  0.11309456  0.16752964
   0.63721504  0.33352410  0.25002014
   0.46196505  0.44480216  0.16737620
   0.10983472  0.66522117  0.99814510
   0.52651165  0.66580948  0.25049986
   0.17626140  0.88765509  0.08196263
   0.76860167  0.77772298  0.41619206
   0.66653001  0.00237641  0.00154636
   0.90824577  0.11279795  0.16609053
   0.44337813  0.66689078  0.00080136
   0.86221399  0.66540079  0.25083158
   0.68512677  0.77592239  0.16723896
   0.50791032  0.88829617  0.08228601
   0.92379139  0.88836824  0.33376211
   0.88751388  0.33376434  0.99955000
   0.84376005  0.88750215  0.08284994
Direct configuration=     3
   0.15437055  0.11205651  0.91534076
   0.04538529  0.44713020  0.91756265
   0.24706960  0.00016720  0.74919634
   0.49518261  0.11070825  0.91741540
   0.14062971  0.33369010  0.74927114
   0.38369672  0.44539606  0.91785989
   0.02622314  0.66482232  0.74917060
   0.27083228  0.77899066  0.91833510
   0.58389318  0.00019907  0.74968322
   0.05777278  0.33648690  0.50244542
   0.64815479  0.22308155  0.83377511
   0.47127792  0.33246878  0.75059872
   0.53553722  0.55409140  0.83422812
   0.60242654  0.77776307  0.91658623
   0.49886885  0.00109125  0.50071354
   0.32324742  0.11020676  0.41675149
   0.14820360  0.22088618  0.33203140
   0.56536477  0.22316024  0.58427255
   0.03622373  0.55309236  0.32887778
   0.98096326  0.21927887  0.83304472
   0.62968256  0.44312842  0.66731873
   0.28191712  0.66435498  0.50228515
   0.09730660  0.78119161  0.41454539
   0.34458723  0.89077492  0.58471476
   0.93371782  0.77739734  0.91711537
  -0.00137828  0.00088627  0.99991058
   0.83528453 -0.00082576  0.49993529
   0.65589368  0.11183942  0.41443321
   0.48126841  0.22342693  0.33385722
   0.30531906  0.33296986  0.24968545
   0.12753038  0.44358104  0.16488078
   0.89766879  0.22394584  0.58533120
   0.72247624  0.33393507  0.49927063
   0.37077827  0.55472495  0.33238109
   0.01709999  0.77685849  0.16632927
   0.43859957  0.77714598  0.41623558
   0.33708387  0.00111759  0.00068288
   0.39868978  0.22395306  0.08686912
   0.22244555  0.33128111  0.00132112
   0.99263075  0.10774954  0.41445712
   0.81139757  0.22089487  0.32978639
   0.28819805  0.55627582  0.08577153
   0.87933378  0.44334141  0.41744878
   0.70236920  0.55272400  0.33071572
   0.35185698  0.77672385  0.16586223
   0.94392601  0.66757096  0.50217104
   0.59256456  0.88740656  0.33149711
   0.73542553  0.22333140  0.08406993
   0.55670922  0.33340017 -0.00120592
   0.97023876  0.33180870  0.24833449
   0.79495472  0.44505346  0.16558768
   0.61899563  0.55579080  0.08455162
   0.95335060  0.55327504  0.08227015
   0.77794485  0.66572154 -0.00046021
   0.07214650  0.11331984  0.66762045
   0.31588912  0.22206652  0.83188965
   0.20549561  0.55409617  0.83317594
   0.09154101  0.88942100  0.83015256
   0.16574585  0.00042438  0.49905622
   0.40590766  0.11264408  0.66466308
   0.23142523  0.22292774  0.58380974
   0.82524462  0.11227756  0.91876757
   0.29384156  0.44400801  0.66616368
   0.11879249  0.55513745  0.58229314
   0.71500949  0.44251744  0.91647389
   0.36172066  0.66634325  0.75073242
   0.18578408  0.77776317  0.66541687
   0.01068323  0.88963896  0.58407828
   0.42880395  0.88895762  0.83479763
   0.08390120  0.00160113  0.25246163
   0.91785654  0.00332970  0.75206839
   0.73965932  0.11210653  0.66621560
   0.38908509  0.33596748  0.50127856
   0.21553572  0.44500931  0.41953205
   0.80660495  0.33207325  0.75009563
   0.45497070  0.55571139  0.58251838
   0.87076203  0.55397594  0.83364102
   0.69540795  0.66581538  0.74938506
   0.51777105  0.77786450  0.66570852
   0.75856319  0.89014190  0.83416542
   0.41649569  0.00076815  0.25151299
   0.24033871  0.11234545  0.16724686
   0.06493943  0.22386058  0.08345856
   0.54571333  0.44348124  0.41493233
   0.19435428  0.66670956  0.25135670
   0.96125920  0.44309122  0.66682312
   0.78737138  0.55341111  0.58180548
   0.61026907  0.66650666  0.49858315
   0.25585525  0.88894196  0.33311796
   0.85306840  0.77517371  0.66497038
   0.67772281  0.89030445  0.58400780
   0.75075088  0.00166338  0.25159160
   0.57442216  0.11232410  0.16753466
   0.63571187  0.33334352  0.24988828
   0.46271724  0.44499649  0.16823707
   0.11066823  0.66509091  0.99757841
   0.52684583  0.66561979  0.25046112
   0.17649317  0.88817084  0.08254858
   0.76839284  0.77816457  0.41626162
   0.66659639  0.00202080  0.00137498
   0.90779002  0.11240450  0.16621521
   0.44239650  0.66700293  0.00077065
   0.86170511  0.66658297  0.25134400
   0.68497656  0.77635711  0.16742063
   0.50827686  0.88884294  0.08252739
   0.92417310  0.88833967  0.33369532
   0.88749720  0.33342197  0.99995598
   0.84385835  0.88839670  0.08349719
Direct configuration=     4
   0.15587884  0.11094935  0.91549759
   0.04369513  0.44665960  0.91634110
   0.24783606  0.00055637  0.74937168
   0.49427165  0.11092595  0.91758893
   0.14036446  0.33479740  0.74951083
   0.38140734  0.44497468  0.91717846
   0.02533156  0.66399674  0.74717552
   0.27021068  0.77833112  0.91845317
   0.58640772 -0.00089444  0.74902126
   0.05878050  0.33601233  0.50248660
   0.64788955  0.22259079  0.83318475
   0.47227536  0.33291684  0.74993607
   0.53554800  0.55487735  0.83374572
   0.60274410  0.77966195  0.91674445
   0.49946983  0.00083549  0.50079578
   0.32264571  0.10989584  0.41610654
   0.14829574  0.22085518  0.33189511
   0.56435999  0.22299883  0.58412316
   0.03764806  0.55440051  0.33021496
   0.98114325  0.21901791  0.83196467
   0.63107006  0.44406283  0.66704557
   0.28129138  0.66459194  0.50294125
   0.09786973  0.78171740  0.41503303
   0.34245078  0.89005439  0.58439788
   0.93413866  0.77691393  0.91726232
  -0.00282153  0.00141890  0.00066934
   0.83590732 -0.00240972  0.50070094
   0.65729895  0.11260845  0.41525077
   0.48128483  0.22417961  0.33370944
   0.30569604  0.33456229  0.25095184
   0.12683628  0.44262961  0.16459488
   0.89752028  0.22342384  0.58488251
   0.72170187  0.33442619  0.49989857
   0.37086400  0.55491902  0.33260217
   0.01636335  0.77797503  0.16689644
   0.43878372  0.77758573  0.41684409
   0.33660631  0.00060199  0.00028756
   0.39926893  0.22317498  0.08700104
   0.22247366  0.33180719  0.00008253
   0.99102509  0.10817845  0.41458750
   0.81165031  0.22096153  0.32981597
   0.28867676  0.55605364  0.08585572
   0.87928928  0.44364846  0.41751722
   0.70219180  0.55367371  0.33172117
   0.35221360  0.77735335  0.16527032
   0.94475497  0.66889870  0.50369116
   0.59354692  0.88791445  0.33124968
   0.73520865  0.22157603  0.08331518
   0.55698166  0.33390809 -0.00034099
   0.97111921  0.33228476  0.24926917
   0.79307792  0.44387783  0.16572449
   0.61972230  0.55708653  0.08565693
   0.95343334  0.55353292  0.08340486
   0.77758090  0.66489679 -0.00102047
   0.07260865  0.11304965  0.66705688
   0.31544396  0.22154587  0.83184645
   0.20562358  0.55503836  0.83311863
   0.09067721  0.88892361  0.83080479
   0.16559827  0.00020639  0.49966240
   0.40524602  0.11251597  0.66534792
   0.23079680  0.22284418  0.58321514
   0.82471363  0.11169526  0.91780443
   0.29563359  0.44485244  0.66723147
   0.11957575  0.55524957  0.58303168
   0.71534488  0.44226107  0.91613070
   0.36154392  0.66649497  0.75025887
   0.18642493  0.77785240  0.66570462
   0.00976893  0.88893477  0.58400150
   0.42750633  0.88832865  0.83349398
   0.08348218  0.00076381  0.25092195
   0.91746931  0.00211059  0.75115303
   0.73984227  0.11186574  0.66652895
   0.38904948  0.33494798  0.50121156
   0.21462134  0.44477920  0.41872429
   0.80661313  0.33258848  0.75065269
   0.45554460  0.55549801  0.58281288
   0.86983841  0.55422582  0.83307034
   0.69536925  0.66601553  0.74917725
   0.51874964  0.77777653  0.66626684
   0.75993235  0.88982384  0.83414795
   0.41542843  0.00056679  0.25087135
   0.23937797  0.11143513  0.16694476
   0.06431712  0.22250663  0.08330427
   0.54569007  0.44402988  0.41585753
   0.19485217  0.66774570  0.25109785
   0.96149169  0.44319125  0.66674020
   0.78703185  0.55434585  0.58231649
   0.61151464  0.66669394  0.49965357
   0.25690293  0.88905858  0.33308528
   0.85234230  0.77599371  0.66579249
   0.67699809  0.88994410  0.58373318
   0.75071275  0.00121642  0.25069388
   0.57462817  0.11109758  0.16690800
   0.63563609  0.33374523  0.24983796
   0.46289931  0.44455971  0.16787206
   0.11193143  0.66580572  0.99847997
   0.52768194  0.66622312  0.25065449
   0.17595565  0.88897099  0.08295070
   0.76873788  0.77775793  0.41643795
   0.66688439  0.00089614  0.00092663
   0.90720946  0.11114359  0.16616773
   0.44321760  0.66728521  0.00070896
   0.86072595  0.66740735  0.25080832
   0.68488376  0.77658935  0.16673874
   0.50955323  0.88935130  0.08314227
   0.92332620  0.88856070  0.33320197
   0.88817084  0.33236312  0.99969421
   0.84359880  0.88887768  0.08389558
Direct configuration=     5
   0.15758308  0.10969836  0.91567479
   0.04178540  0.44612786  0.91496085
   0.24870211  0.00099611  0.74956981
   0.49324233  0.11117193  0.91778500
   0.14006476  0.33604856  0.74978167
   0.37882054  0.44449854  0.91640851
   0.02432416  0.66306389  0.74492124
   0.26950832  0.77758589  0.91858657
   0.58924895 -0.00213001  0.74827331
   0.05991915  0.33547610  0.50253313
   0.64758985  0.22203628  0.83251769
   0.47340238  0.33342311  0.74918732
   0.53556017  0.55576540  0.83320065
   0.60310292  0.78180752  0.91692322
   0.50014888  0.00054650  0.50088869
   0.32196583  0.10954453  0.41537780
   0.14839984  0.22082015  0.33174112
   0.56322468  0.22281646  0.58395436
   0.03925744  0.55587860  0.33172585
   0.98134661  0.21872303  0.83074431
   0.63263782  0.44511864  0.66673693
   0.28058434  0.66485969  0.50368258
   0.09850602  0.78231149  0.41558401
   0.34003677  0.88924025  0.58403984
   0.93461417  0.77636771  0.91742836
  -0.00445228  0.00202072  0.00152668
   0.83661103 -0.00419945  0.50156606
   0.65888679  0.11347740  0.41617454
   0.48130338  0.22503007  0.33354246
   0.30612200  0.33636161  0.25238276
   0.12605201  0.44155457  0.16427184
   0.89735247  0.22283402  0.58437553
   0.72082688  0.33498112  0.50060809
   0.37096086  0.55513831  0.33285196
   0.01553101  0.77923663  0.16753730
   0.43899178  0.77808261  0.41753166
   0.33606671  0.00001941 -0.00015912
   0.39992332  0.22229580  0.08715010
   0.22250542  0.33240162 -0.00131697
   0.98921084  0.10866307  0.41473481
   0.81193589  0.22103685  0.32984939
   0.28921766  0.55580259  0.08595084
   0.87923900  0.44399541  0.41759455
   0.70199136  0.55474681  0.33285724
   0.35261655  0.77806464  0.16460151
   0.94569162  0.67039893  0.50540878
   0.59465691  0.88848832  0.33097009
   0.73496360  0.21959261  0.08246237
   0.55728949  0.33448199  0.00063631
   0.97211405  0.33282267  0.25032528
   0.79095729  0.44254947  0.16587907
   0.62054338  0.55855060  0.08690583
   0.95352683  0.55382430  0.08468698
   0.77716966  0.66396488 -0.00165351
   0.07313085  0.11274435  0.66642009
   0.31494096  0.22095757  0.83179764
   0.20576818  0.55610295  0.83305388
   0.08970119  0.88836161  0.83154174
   0.16543151 -0.00003993  0.50034735
   0.40449843  0.11237123  0.66612172
   0.23008672  0.22274976  0.58254330
   0.82411366  0.11103731  0.91671617
   0.29765842  0.44580657  0.66843799
   0.12046076  0.55537626  0.58386618
   0.71572383  0.44197140  0.91574293
   0.36134422  0.66666639  0.74972379
   0.18714905  0.77795322  0.66602976
   0.00873585  0.88813910  0.58391473
   0.42604012  0.88761796  0.83202097
   0.08300872 -0.00018230  0.24918224
   0.91703178  0.00073309  0.75011875
   0.74004899  0.11159366  0.66688302
   0.38900923  0.33379603  0.50113586
   0.21358817  0.44451920  0.41781159
   0.80662238  0.33317066  0.75128212
   0.45619306  0.55525690  0.58314564
   0.86879480  0.55450816  0.83242551
   0.69532553  0.66624169  0.74894246
   0.51985535  0.77767713  0.66689770
   0.76147939  0.88946446  0.83412820
   0.41422252  0.00033926  0.25014634
   0.23829242  0.11040655  0.16660342
   0.06361397  0.22097678  0.08312994
   0.54566379  0.44464980  0.41690292
   0.19541475  0.66891645  0.25080538
   0.96175439  0.44330427  0.66664652
   0.78664822  0.55540203  0.58289390
   0.61292204  0.66690554  0.50086306
   0.25808671  0.88919034  0.33304835
   0.85152186  0.77692025  0.66672139
   0.67617920  0.88953692  0.58342289
   0.75066967  0.00071140  0.24967952
   0.57486096  0.10971172  0.16619992
   0.63555046  0.33419912  0.24978110
   0.46310504  0.44406619  0.16745963
   0.11335873  0.66661339  0.99949866
   0.52862668  0.66690483  0.25087298
   0.17534831  0.88987508  0.08340506
   0.76912775  0.77729847  0.41663718
   0.66720980 -0.00037463  0.00042004
   0.90655349  0.10971888  0.16611408
   0.44414538  0.66760417  0.00063925
   0.85961959  0.66833883  0.25020305
   0.68477890  0.77685177  0.16596827
   0.51099542  0.88992572  0.08383703
   0.92236927  0.88881044  0.33264454
   0.88893200  0.33116670  0.99939844
   0.84330553  0.88942114  0.08434573
Direct configuration=     6
   0.15713605  0.10918466  0.91568540
   0.04126427  0.44687085  0.91526012
   0.24950475  0.00087960  0.74980260
   0.49336666  0.11069193  0.91725373
   0.14036167  0.33603245  0.74932290
   0.37890926  0.44498707  0.91607456
   0.02418130  0.66323992  0.74463650
   0.26923154  0.77739831  0.91824874
   0.58878508 -0.00288424  0.74786851
   0.05959414  0.33528385  0.50241042
   0.64695265  0.22158001  0.83251429
   0.47329034  0.33387962  0.74895585
   0.53602866  0.55676640  0.83332175
   0.60312718  0.78202203  0.91678941
   0.50039661  0.00049483  0.50084934
   0.32147907  0.10908087  0.41475984
   0.14824726  0.22041600  0.33140610
   0.56311790  0.22266324  0.58376837
   0.03891459  0.55721837  0.33212567
   0.98201512  0.21816904  0.83027676
   0.63332119  0.44536564  0.66674936
   0.28089675  0.66495412  0.50401339
   0.09870306  0.78238649  0.41558853
   0.33994904  0.88887153  0.58410124
   0.93487822  0.77610090  0.91739841
  -0.00479310  0.00161375  0.00139538
   0.83640965 -0.00473107  0.50174101
   0.65907427  0.11361899  0.41653393
   0.48133529  0.22508527  0.33340527
   0.30591137  0.33662371  0.25233801
   0.12564321  0.44127216  0.16449855
   0.89665297  0.22237657  0.58427705
   0.72117822  0.33512231  0.50084854
   0.37082553  0.55644320  0.33321088
   0.01560484  0.77937852  0.16725819
   0.43880899  0.77825063  0.41794073
   0.33535125 -0.00086383 -0.00065426
   0.39958834  0.22227704  0.08763517
   0.22199645  0.33182575 -0.00198530
   0.98814956  0.10821870  0.41446871
   0.81189622  0.22142455  0.33015705
   0.28886706  0.55565537  0.08577219
   0.87945427  0.44465933  0.41806286
   0.70277409  0.55548111  0.33371373
   0.35233422  0.77836538  0.16435171
   0.94644949  0.67075058  0.50600708
   0.59509573  0.88921400  0.33127602
   0.73511173  0.21883354  0.08251372
   0.55765300  0.33477205  0.00055177
   0.97178542  0.33260747  0.25023224
   0.79161975  0.44224104  0.16658028
   0.62048170  0.55823344  0.08640599
   0.95365542  0.55325600  0.08523513
   0.77712555  0.66361245 -0.00195163
   0.07354265  0.11278841  0.66620782
   0.31513085  0.22117086  0.83172334
   0.20537598  0.55719642  0.83315722
   0.08965719  0.88784792  0.83209571
   0.16545145 -0.00009654  0.50015618
   0.40475761  0.11208879  0.66639476
   0.22989241  0.22256016  0.58253469
   0.82418185  0.11038003  0.91564288
   0.29882975  0.44600806  0.66868811
   0.12081467  0.55471615  0.58360911
   0.71460838  0.44204679  0.91617500
   0.36145158  0.66717694  0.74986585
   0.18734214  0.77849437  0.66679476
   0.00851300  0.88769922  0.58435285
   0.42544071  0.88791205  0.83155850
   0.08280413 -0.00022919  0.24936911
   0.91853477  0.00021503  0.74975272
   0.73993566  0.11147782  0.66664442
   0.38884241  0.33321370  0.50101269
   0.21328282  0.44474018  0.41816315
   0.80595592  0.33283978  0.75056873
   0.45574684  0.55475835  0.58307507
   0.86868317  0.55512613  0.83216284
   0.69544485  0.66676902  0.74935921
   0.51984125  0.77744430  0.66700877
   0.76230965  0.88937484  0.83445217
   0.41473717  0.00089324  0.25039603
   0.23852948  0.11062425  0.16660234
   0.06451812  0.22057618  0.08322539
   0.54590174  0.44508900  0.41751086
   0.19573459  0.66927315  0.25055132
   0.96226762  0.44309875  0.66630736
   0.78699578  0.55580550  0.58284256
   0.61292534  0.66723789  0.50143357
   0.25911420  0.88959796  0.33318299
   0.85155167  0.77773192  0.66754254
   0.67487953  0.88893108  0.58307939
   0.75044350  0.00092076  0.24980311
   0.57465400  0.10947659  0.16606669
   0.63572975  0.33422660  0.25005863
   0.46221667  0.44408389  0.16745320
   0.11332165  0.66650919  0.00024906
   0.52863360  0.66769963  0.25130059
   0.17509942  0.89000566  0.08305812
   0.76941416  0.77684938  0.41660060
   0.66636324 -0.00094444 -0.00052501
   0.90616548  0.10967523  0.16645852
   0.44518666  0.66755690  0.00024161
   0.86004918  0.66855291  0.25040930
   0.68455891  0.77713239  0.16536949
   0.51073846  0.88986111  0.08360795
   0.92254965  0.88943359  0.33288112
   0.88900926  0.33047521  0.99900545
   0.84264661  0.88863540  0.08375973
Direct configuration=     7
   0.15679903  0.10879738  0.91569340
   0.04087138  0.44743099  0.91548574
   0.25010987  0.00079176  0.74997811
   0.49346040  0.11033006  0.91685320
   0.14058552  0.33602029  0.74897704
   0.37897615  0.44535537  0.91582279
   0.02407359  0.66337263  0.74442182
   0.26902286  0.77725688  0.91799405
   0.58843536 -0.00345287  0.74756333
   0.05934912  0.33513891  0.50231791
   0.64647226  0.22123601  0.83251173
   0.47320587  0.33422380  0.74878134
   0.53638185  0.55752107  0.83341304
   0.60314548  0.78218375  0.91668853
   0.50058337  0.00045588  0.50081967
   0.32111210  0.10873131  0.41429395
   0.14813222  0.22011131  0.33115353
   0.56303740  0.22254773  0.58362815
   0.03865611  0.55822843  0.33242709
   0.98251911  0.21775138  0.82992427
   0.63383639  0.44555186  0.66675873
   0.28113229  0.66502531  0.50426279
   0.09885162  0.78244304  0.41559194
   0.33988291  0.88859355  0.58414752
   0.93507728  0.77589975  0.91737582
  -0.00505006  0.00130693  0.00129638
   0.83625783 -0.00513187  0.50187291
   0.65921562  0.11372574  0.41680487
   0.48135934  0.22512689  0.33330185
   0.30575257  0.33682131  0.25230427
   0.12533502  0.44105925  0.16466947
   0.89612561  0.22203169  0.58420281
   0.72144309  0.33522876  0.50102981
   0.37072351  0.55742698  0.33348147
   0.01566051  0.77948550  0.16704777
   0.43867119  0.77837730  0.41824913
   0.33481186 -0.00152972 -0.00102755
   0.39933580  0.22226289  0.08800086
   0.22161273  0.33139159 -0.00248917
   0.98734945  0.10788369  0.41426810
   0.81186631  0.22171685  0.33038901
   0.28860274  0.55554438  0.08563751
   0.87961656  0.44515986  0.41841593
   0.70336420  0.55603471  0.33435945
   0.35212137  0.77859211  0.16416339
   0.94702086  0.67101568  0.50645814
   0.59542656  0.88976111  0.33150665
   0.73522340  0.21826126  0.08255242
   0.55792706  0.33499073  0.00048803
   0.97153765  0.33244522  0.25016209
   0.79211919  0.44200851  0.16710894
   0.62043521  0.55799432  0.08602916
   0.95375237  0.55282756  0.08564839
   0.77709229  0.66334675 -0.00217638
   0.07385311  0.11282164  0.66604779
   0.31527402  0.22133165  0.83166733
   0.20508029  0.55802079  0.83323513
   0.08962402  0.88746065  0.83251334
   0.16546649 -0.00013922  0.50001206
   0.40495301  0.11187586  0.66660061
   0.22974592  0.22241722  0.58252820
   0.82423326  0.10988450  0.91483372
   0.29971283  0.44615997  0.66887669
   0.12108148  0.55421849  0.58341531
   0.71376743  0.44210363  0.91650073
   0.36153252  0.66756184  0.74997295
   0.18748772  0.77890236  0.66737151
   0.00834499  0.88736759  0.58468316
   0.42498881  0.88813376  0.83120984
   0.08264989 -0.00026454  0.24951000
   0.91966790 -0.00017554  0.74947677
   0.73985022  0.11139048  0.66646455
   0.38871663  0.33277467  0.50091983
   0.21305261  0.44490678  0.41842820
   0.80545347  0.33259033  0.75003090
   0.45541044  0.55438249  0.58302187
   0.86859902  0.55559202  0.83196481
   0.69553481  0.66716659  0.74967340
   0.51983062  0.77726876  0.66709251
   0.76293559  0.88930728  0.83469642
   0.41512517  0.00131089  0.25058428
   0.23870820  0.11078837  0.16660153
   0.06519977  0.22027416  0.08329734
   0.54608113  0.44542013  0.41796919
   0.19597571  0.66954207  0.25035978
   0.96265455  0.44294381  0.66605167
   0.78725780  0.55610968  0.58280386
   0.61292784  0.66748845  0.50186368
   0.25988884  0.88990527  0.33328450
   0.85157414  0.77834385  0.66816160
   0.67389969  0.88847433  0.58282042
   0.75027299  0.00107859  0.24989629
   0.57449797  0.10929932  0.16596624
   0.63586492  0.33424731  0.25026787
   0.46154691  0.44409724  0.16744834
   0.11329369  0.66643064  0.00081480
   0.52863881  0.66829884  0.25162297
   0.17491179  0.89010410  0.08279656
   0.76963010  0.77651081  0.41657303
   0.66572500 -0.00137402 -0.00123749
   0.90587296  0.10964232  0.16671820
   0.44597170  0.66752127 -0.00005817
   0.86037305  0.66871431  0.25056480
   0.68439307  0.77734396  0.16491806
   0.51054474  0.88981240  0.08343525
   0.92268565  0.88990338  0.33305948
   0.88906752  0.32995388  0.99870917
   0.84214983  0.88804302  0.08331794
Direct configuration=     8
   0.15668934  0.10870354  0.91562908
   0.04043895  0.44752739  0.91545218
   0.25004904  0.00087620  0.75010806
   0.49358458  0.11045692  0.91698027
   0.14042573  0.33606550  0.74888797
   0.37870629  0.44581920  0.91552182
   0.02406189  0.66346336  0.74458595
   0.26915542  0.77713152  0.91792585
   0.58850072 -0.00373794  0.74731659
   0.05917796  0.33479347  0.50220221
   0.64661238  0.22116163  0.83234779
   0.47347074  0.33432052  0.74896223
   0.53651610  0.55785266  0.83338508
   0.60283923  0.78180149  0.91640342
   0.50016988  0.00058866  0.50090130
   0.32088876  0.10879235  0.41441261
   0.14798067  0.22016835  0.33109016
   0.56251933  0.22238420  0.58347293
   0.03863792  0.55837402  0.33248627
   0.98246084  0.21778412  0.82972175
   0.63404795  0.44559127  0.66680626
   0.28134562  0.66503251  0.50457856