       N       E                     dE             d eps       ncg     rms          rms(c)
DAV:   1     0.401849359053E+04    0.40185E+04   -0.16791E+05 27132   0.173E+03
DAV:   2     0.327137183307E+03   -0.36914E+04   -0.33643E+04 27132   0.365E+02
DAV:   3    -0.292796386111E+03   -0.61993E+03   -0.48681E+03 27132   0.177E+02
DAV:   4    -0.337718035501E+03   -0.44922E+02   -0.43110E+02 29031   0.580E+01
DAV:   5    -0.338368202460E+03   -0.65017E+00   -0.64927E+00 32370   0.688E+00    0.103E+02
RMM:   6    -0.506500289794E+03   -0.16813E+03   -0.56894E+02 27133   0.651E+01    0.158E+02
RMM:   7    -0.361397111989E+03    0.14510E+03   -0.14776E+02 27132   0.345E+01    0.110E+02
RMM:   8    -0.373505794721E+03   -0.12109E+02   -0.94249E+01 27132   0.255E+01    0.121E+02
RMM:   9    -0.351482323745E+03    0.22023E+02   -0.36085E+01 27132   0.169E+01    0.870E+01
RMM:  10    -0.326435323293E+03    0.25047E+02   -0.25837E+01 27132   0.141E+01    0.581E+01
RMM:  11    -0.351214952856E+03   -0.24780E+02   -0.17548E+01 27132   0.114E+01    0.930E+01
RMM:  12    -0.325879650032E+03    0.25335E+02   -0.14839E+01 27132   0.107E+01    0.348E+01
RMM:  13    -0.326064493372E+03   -0.18484E+00   -0.33884E+00 27132   0.491E+00    0.325E+01
RMM:  14    -0.327983469401E+03   -0.19190E+01   -0.26556E+00 27132   0.436E+00    0.306E+01
RMM:  15    -0.326134380358E+03    0.18491E+01   -0.15190E+00 27132   0.325E+00    0.189E+01
RMM:  16    -0.326948401153E+03   -0.81402E+00   -0.55208E-01 27132   0.187E+00    0.191E+01
RMM:  17    -0.327499471863E+03   -0.55107E+00   -0.64429E-01 27132   0.199E+00    0.157E+01
RMM:  18    -0.327764833436E+03   -0.26536E+00   -0.38380E-01 27132   0.159E+00    0.135E+01
RMM:  19    -0.328276475566E+03   -0.51164E+00   -0.29499E-01 27132   0.136E+00    0.116E+01
RMM:  20    -0.328851167831E+03   -0.57469E+00   -0.31948E-01 27132   0.143E+00    0.120E+01
RMM:  21    -0.329137701666E+03   -0.28653E+00   -0.33552E-01 27132   0.139E+00    0.954E+00
RMM:  22    -0.329563092390E+03   -0.42539E+00   -0.36253E-01 27132   0.151E+00    0.105E+01
RMM:  23    -0.329418803144E+03    0.14429E+00   -0.29946E-01 27132   0.141E+00    0.576E+00
RMM:  24    -0.329525808058E+03   -0.10700E+00   -0.20125E-01 27132   0.116E+00    0.663E+00
RMM:  25    -0.329409165875E+03    0.11664E+00   -0.10266E-01 27132   0.838E-01    0.318E+00
RMM:  26    -0.329441780139E+03   -0.32614E-01   -0.53907E-02 27132   0.604E-01    0.380E+00
RMM:  27    -0.329391948061E+03    0.49832E-01   -0.26178E-02 27132   0.435E-01    0.159E+00
RMM:  28    -0.329398939807E+03   -0.69917E-02   -0.10963E-02 27132   0.277E-01    0.184E+00
RMM:  29    -0.329389674912E+03    0.92649E-02   -0.60604E-03 27132   0.206E-01    0.765E-01
RMM:  30    -0.329390858895E+03   -0.11840E-02   -0.20789E-03 27132   0.118E-01    0.777E-01
RMM:  31    -0.329389737550E+03    0.11213E-02   -0.14216E-03 27132   0.986E-02    0.421E-01
RMM:  32    -0.329390071343E+03   -0.33379E-03   -0.80304E-04 27132   0.747E-02    0.441E-01
RMM:  33    -0.329389529864E+03    0.54148E-03   -0.39931E-04 27132   0.530E-02    0.232E-01
RMM:  34    -0.329389538650E+03   -0.87860E-05   -0.19779E-04 27132   0.371E-02    0.225E-01
RMM:  35    -0.329389390729E+03    0.14792E-03   -0.97758E-05 27132   0.260E-02    0.128E-01
RMM:  36    -0.329389396259E+03   -0.55295E-05   -0.51608E-05 25284   0.190E-02
   1 F= -.32938940E+03 E0= -.32938872E+03  d E =-.329389E+03  mag=    79.3146
       N       E                     dE             d eps       ncg     rms          rms(c)
DAV:   1    -0.329388919949E+03    0.47078E-03   -0.13500E+00 28821   0.172E+00    0.640E-01
RMM:   2    -0.329398168324E+03   -0.92484E-02   -0.21205E-02 27132   0.435E-01    0.974E-01
RMM:   3    -0.329397468861E+03    0.69946E-03   -0.60992E-03 27132   0.204E-01    0.783E-01
RMM:   4    -0.329395378594E+03    0.20903E-02   -0.11565E-03 27132   0.925E-02    0.325E-01
RMM:   5    -0.329394899082E+03    0.47951E-03   -0.27879E-04 27132   0.440E-02    0.857E-02
RMM:   6    -0.329394957083E+03   -0.58001E-04   -0.10160E-04 27132   0.257E-02    0.174E-01
RMM:   7    -0.329394808986E+03    0.14810E-03   -0.94041E-05 27127   0.242E-02    0.481E-02
RMM:   8    -0.329394847425E+03   -0.38438E-04   -0.51022E-05 25526   0.177E-02    0.103E-01
RMM:   9    -0.329394798962E+03    0.48463E-04   -0.27151E-05 20099   0.141E-02    0.220E-02
RMM:  10    -0.329394798232E+03    0.72997E-06   -0.44880E-06 15487   0.564E-03
   2 F= -.32939480E+03 E0= -.32939408E+03  d E =-.540197E-02  mag=    79.3038
       N       E                     dE             d eps       ncg     rms          rms(c)
DAV:   1    -0.329382573227E+03    0.12226E-01   -0.33080E+00 28641   0.269E+00    0.996E-01
RMM:   2    -0.329404448411E+03   -0.21875E-01   -0.50390E-02 27132   0.681E-01    0.147E+00
RMM:   3    -0.329403718100E+03    0.73031E-03   -0.14182E-02 27132   0.311E-01    0.124E+00
RMM:   4    -0.329398540484E+03    0.51776E-02   -0.29476E-03 27132   0.147E-01    0.568E-01
RMM:   5    -0.329397100107E+03    0.14404E-02   -0.76737E-04 27132   0.733E-02    0.132E-01
RMM:   6    -0.329397234012E+03   -0.13391E-03   -0.23583E-04 27132   0.392E-02    0.262E-01
RMM:   7    -0.329396879503E+03    0.35451E-03   -0.22250E-04 27132   0.369E-02    0.716E-02
RMM:   8    -0.329396973449E+03   -0.93946E-04   -0.12808E-04 27126   0.278E-02    0.159E-01
RMM:   9    -0.329396858932E+03    0.11452E-03   -0.67862E-05 26320   0.210E-02    0.321E-02
RMM:  10    -0.329396857847E+03    0.10854E-05   -0.81812E-06 15978   0.760E-03
   3 F= -.32939686E+03 E0= -.32939614E+03  d E =-.746159E-02  mag=    79.3033
       N       E                     dE             d eps       ncg     rms          rms(c)
DAV:   1    -0.329396346704E+03    0.51223E-03   -0.17183E-01 28632   0.614E-01    0.226E-01
RMM:   2    -0.329397460978E+03   -0.11143E-02   -0.25898E-03 27132   0.154E-01    0.330E-01
RMM:   3    -0.329397443924E+03    0.17054E-04   -0.73131E-04 27132   0.707E-02    0.287E-01
RMM:   4    -0.329397166192E+03    0.27773E-03   -0.15373E-04 26989   0.336E-02    0.128E-01
RMM:   5    -0.329397093277E+03    0.72915E-04   -0.38199E-05 23844   0.167E-02    0.306E-02
RMM:   6    -0.329397098945E+03   -0.56683E-05   -0.12007E-05 16281   0.940E-03
   4 F= -.32939710E+03 E0= -.32939638E+03  d E =-.770269E-02  mag=    79.3035
       N       E                     dE             d eps       ncg     rms          rms(c)
DAV:   1    -0.329394779272E+03    0.23140E-02   -0.12236E+00 28449   0.164E+00    0.601E-01
RMM:   2    -0.329400552514E+03   -0.57732E-02   -0.15759E-02 27132   0.373E-01    0.549E-01
RMM:   3    -0.329404114487E+03   -0.35620E-02   -0.37707E-03 27132   0.161E-01    0.888E-01
RMM:   4    -0.329400411964E+03    0.37025E-02   -0.11883E-03 27132   0.947E-02    0.187E-01
RMM:   5    -0.329400260423E+03    0.15154E-03   -0.14827E-04 27078   0.313E-02    0.762E-02
RMM:   6    -0.329400260073E+03    0.34992E-06   -0.80365E-05 27132   0.212E-02
   5 F= -.32940026E+03 E0= -.32939950E+03  d E =-.316113E-02  mag=    79.2994
       N       E                     dE             d eps       ncg     rms          rms(c)
DAV:   1    -0.329359837537E+03    0.40423E-01   -0.97072E+00 28311   0.462E+00    0.170E+00
RMM:   2    -0.329404359418E+03   -0.44522E-01   -0.12540E-01 27132   0.105E+00    0.148E+00
RMM:   3    -0.329434732175E+03   -0.30373E-01   -0.29878E-02 27132   0.452E-01    0.256E+00
RMM:   4    -0.329404832087E+03    0.29900E-01   -0.10167E-02 27132   0.276E-01    0.582E-01
RMM:   5    -0.329403403734E+03    0.14284E-02   -0.13189E-03 27132   0.940E-02    0.228E-01
RMM:   6    -0.329403244142E+03    0.15959E-03   -0.64359E-04 27132   0.595E-02    0.354E-01
RMM:   7    -0.329402597412E+03    0.64673E-03   -0.55757E-04 27132   0.567E-02    0.136E-01
RMM:   8    -0.329402784044E+03   -0.18663E-03   -0.39847E-04 27132   0.450E-02    0.249E-01
RMM:   9    -0.329402501878E+03    0.28217E-03   -0.17657E-04 27130   0.328E-02    0.386E-02
RMM:  10    -0.329402507685E+03   -0.58076E-05   -0.18181E-05 17444   0.112E-02
   6 F= -.32940251E+03 E0= -.32940163E+03  d E =-.540874E-02  mag=    79.2871
       N       E                     dE             d eps       ncg     rms          rms(c)
DAV:   1    -0.329400634032E+03    0.18678E-02   -0.49598E-01 28443   0.104E+00    0.381E-01
RMM:   2    -0.329402885314E+03   -0.22513E-02   -0.63770E-03 27132   0.238E-01    0.330E-01
RMM:   3    -0.329404370199E+03   -0.14849E-02   -0.14533E-03 27132   0.998E-02    0.559E-01
RMM:   4    -0.329402894585E+03    0.14756E-02   -0.48494E-04 27132   0.604E-02    0.122E-01
RMM:   5    -0.329402831242E+03    0.63343E-04   -0.61562E-05 26205   0.203E-02    0.506E-02
RMM:   6    -0.329402827610E+03    0.36314E-05   -0.35331E-05 23526   0.144E-02
   7 F= -.32940283E+03 E0= -.32940197E+03  d E =-.572867E-02  mag=    79.2903
       N       E                     dE             d eps       ncg     rms          rms(c)
DAV:   1    -0.329397926140E+03    0.49051E-02   -0.15347E+00 28395   0.184E+00    0.686E-01
RMM:   2    -0.329409256892E+03   -0.11331E-01   -0.22837E-02 27132   0.454E-01    0.111E+00
RMM:   3    -0.329407574683E+03    0.16822E-02   -0.65589E-03 27132   0.211E-01    0.844E-01
RMM:   4    -0.329405541131E+03    0.20336E-02   -0.15680E-03 27132   0.107E-01    0.429E-01
RMM:   5    -0.329404714625E+03    0.82651E-03   -0.39258E-04 27132   0.531E-02    0.838E-02
RMM:   6    -0.329404750141E+03   -0.35516E-04   -0.10118E-04 27132   0.255E-02    0.161E-01
RMM:   7    -0.329404592892E+03    0.15725E-03   -0.11547E-04 27132   0.242E-02    0.470E-02
RMM:   8    -0.329404632078E+03   -0.39186E-04   -0.63576E-05 26217   0.193E-02    0.102E-01
RMM:   9    -0.329404585008E+03    0.47070E-04   -0.28142E-05 21092   0.140E-02    0.219E-02
RMM:  10    -0.329404584351E+03    0.65655E-06   -0.47722E-06 15493   0.591E-03
   8 F= -.32940458E+03 E0= -.32940379E+03  d E =-.175674E-02  mag=    79.3027
       N       E                     dE             d eps       ncg     rms          rms(c)
DAV:   1    -0.329402230529E+03    0.23545E-02   -0.59792E-01 28458   0.115E+00    0.428E-01
RMM:   2    -0.329406484941E+03   -0.42544E-02   -0.87333E-03 27132   0.280E-01    0.661E-01
RMM:   3    -0.329406040334E+03    0.44461E-03   -0.24585E-03 27132   0.130E-01    0.528E-01
RMM:   4    -0.329405187787E+03    0.85255E-03   -0.58436E-04 27132   0.652E-02    0.262E-01
RMM:   5    -0.329404881286E+03    0.30650E-03   -0.14750E-04 27094   0.325E-02    0.529E-02
RMM:   6    -0.329404896332E+03   -0.15046E-04   -0.37566E-05 23983   0.158E-02    0.102E-01
RMM:   7    -0.329404833552E+03    0.62780E-04   -0.50290E-05 26901   0.164E-02    0.282E-02
RMM:   8    -0.329404849453E+03   -0.15901E-04   -0.22880E-05 19229   0.121E-02    0.646E-02
RMM:   9    -0.329404831093E+03    0.18360E-04   -0.14061E-05 16080   0.111E-02    0.130E-02
RMM:  10    -0.329404831015E+03    0.77314E-07   -0.25299E-06 15106   0.409E-03
   9 F= -.32940483E+03 E0= -.32940407E+03  d E =-.200341E-02  mag=    79.3100
       N       E                     dE             d eps       ncg     rms          rms(c)
DAV:   1    -0.329402542674E+03    0.22884E-02   -0.56225E-01 28437   0.111E+00    0.457E-01
RMM:   2    -0.329408851349E+03   -0.63087E-02   -0.94712E-03 27132   0.289E-01    0.927E-01
RMM:   3    -0.329406222712E+03    0.26286E-02   -0.30807E-03 27132   0.146E-01    0.495E-01
RMM:   4    -0.329405755644E+03    0.46707E-03   -0.60417E-04 27132   0.660E-02    0.291E-01
RMM:   5    -0.329405377133E+03    0.37851E-03   -0.18522E-04 27131   0.366E-02    0.563E-02
RMM:   6    -0.329405393295E+03   -0.16163E-04   -0.35122E-05 23683   0.154E-02    0.985E-02
RMM:   7    -0.329405332869E+03    0.60426E-04   -0.49127E-05 26833   0.164E-02    0.304E-02
RMM:   8    -0.329405348733E+03   -0.15864E-04   -0.24194E-05 20144   0.125E-02    0.662E-02
RMM:   9    -0.329405329795E+03    0.18938E-04   -0.14625E-05 16236   0.112E-02    0.125E-02
RMM:  10    -0.329405329892E+03   -0.96799E-07   -0.26282E-06 15173   0.415E-03
  10 F= -.32940533E+03 E0= -.32940466E+03  d E =-.498876E-03  mag=    79.3259
