SQS-NiFe                                
           1
     7.142000   -7.142000    0.000000
     0.000000    7.142000   -7.142000
     3.571000    3.571000    3.571000
   Ni   Fe
  24  24
Direct configuration=     1
   0.99896279  0.99968205  0.99695861
   0.24995474  0.99895368  0.00211031
   0.50041792  0.00248403  0.99740875
   0.99891767  0.25072284  0.99761397
   0.24930995  0.24841318  0.99860075
   0.33428301  0.16627302  0.33347477
   0.74988162  0.25332921  0.00055350
   0.41729549  0.08429274  0.66371038
   0.83210298  0.16676860  0.33578755
   0.66639723  0.08440188  0.66576729
   0.00026916  0.49942477  0.99981485
   0.74944559  0.49865309  0.99895621
   0.58238598  0.41412533  0.33350968
   0.41818480  0.33275211  0.66365711
   0.83110918  0.41542157  0.33597573
   0.91779848  0.33463534  0.66508943
   0.99917066  0.74928392  0.00255918
   0.08289898  0.66626253  0.33367179
   0.75400564  0.75160234  0.99932575
   0.41595178  0.58269881  0.66863852
   0.91540585  0.58457770  0.66658208
   0.16631401  0.83403880  0.66546828
   0.41735002  0.83363670  0.67007951
   0.91938936  0.83183785  0.66921627
   0.75031731  0.00463307  0.00057908
   0.08323546  0.16875277  0.32462049
   0.49419104  0.24591699  0.99880732
   0.16949206  0.08199975  0.67012456
   0.58769841  0.17061554  0.32906736
   0.91507352  0.08452076  0.66199642
   0.24669405  0.49671880  0.00274956
   0.07413594  0.41578627  0.33192545
   0.50334215  0.49898419  0.99696037
   0.33765987  0.41511439  0.33392642
   0.16869691  0.33522578  0.66731249
   0.67203233  0.33599898  0.66826514
   0.24635716  0.75299684  0.00324192
   0.50030920  0.75047269  0.99849027
   0.33362931  0.66457039  0.33858960
   0.16489749  0.58519540  0.67027924
   0.58526218  0.66761149  0.33181709
   0.83078214  0.65908139  0.33370430
   0.66718917  0.58328594  0.66739369
   0.08226964  0.91467121  0.32822173
   0.33465643  0.91719823  0.33862501
   0.58271577  0.91975178  0.33716997
   0.83438145  0.91419229  0.33250264
   0.66777814  0.83243301  0.66909958
Direct configuration=     2
   0.99909564  0.99993951  0.99647794
   0.24964947  0.99886724  0.00181179
   0.50022626  0.00237374  0.99735879
   0.99876790  0.25062835  0.99771853
   0.24924359  0.24844908  0.99833378
   0.33412642  0.16601416  0.33314906
   0.74984785  0.25311268  0.00086463
   0.41737875  0.08415693  0.66365987
   0.83191580  0.16648018  0.33579331
   0.66669237  0.08441802  0.66586593
   0.00020553  0.49943924  0.99998886
   0.74927266  0.49890996  0.99912007
   0.58248442  0.41394296  0.33343619
   0.41826335  0.33294945  0.66383967
   0.83113991  0.41537787  0.33624382
   0.91788975  0.33464831  0.66545420
   0.99889903  0.74924911  0.00236710
   0.08277631  0.66627761  0.33386274
   0.75389997  0.75146206  0.99894648
   0.41631241  0.58274809  0.66886244
   0.91556246  0.58451211  0.66662465
   0.16656370  0.83420407  0.66541585
   0.41723551  0.83354398  0.67034848
   0.91934114  0.83193904  0.66922492
   0.75021991  0.00463527  0.00081691
   0.08353821  0.16895755  0.32410950
   0.49394630  0.24583905  0.99862725
   0.16980390  0.08223214  0.66995767
   0.58768656  0.17047893  0.32927961
   0.91518881  0.08458897  0.66230020
   0.24675628  0.49678320  0.00290213
   0.07434996  0.41569418  0.33212197
   0.50322547  0.49919460  0.99633670
   0.33774295  0.41511512  0.33387171
   0.16897407  0.33538840  0.66735816
   0.67205734  0.33596388  0.66818784
   0.24638952  0.75294798  0.00307313
   0.50008281  0.75030366  0.99860780
   0.33349222  0.66429993  0.33876315
   0.16490431  0.58541421  0.67066059
   0.58529679  0.66785437  0.33218131
   0.83083295  0.65910006  0.33324506
   0.66700019  0.58350215  0.66749037
   0.08245805  0.91459945  0.32779058
   0.33450027  0.91716426  0.33849353
   0.58294500  0.91963724  0.33758424
   0.83403838  0.91420546  0.33232864
   0.66777955  0.83245615  0.66914288
Direct configuration=     3
   0.99930365  0.00034260  0.99572537
   0.24917151  0.99873191  0.00134441
   0.49992619  0.00220107  0.99728057
   0.99853339  0.25048040  0.99788225
   0.24913969  0.24850530  0.99791579
   0.33388126  0.16560887  0.33263911
   0.74979499  0.25277366  0.00135176
   0.41750912  0.08394430  0.66358078
   0.83162275  0.16602862  0.33580232
   0.66715447  0.08444330  0.66602035
   0.00010590  0.49946191  0.00026130
   0.74900192  0.49931215  0.99937661
   0.58263855  0.41365744  0.33332113
   0.41838633  0.33325843  0.66412552
   0.83118803  0.41530945  0.33666355
   0.91803265  0.33466861  0.66602530
   0.99847374  0.74919461  0.00206636
   0.08258425  0.66630123  0.33416170
   0.75373452  0.75124242  0.99835268
   0.41687704  0.58282524  0.66921302
   0.91580765  0.58440941  0.66669131
   0.16695464  0.83446283  0.66533377
   0.41705624  0.83339882  0.67076958
   0.91926566  0.83209748  0.66923847
   0.75006742  0.00463870  0.00118929
   0.08401220  0.16927818  0.32330946
   0.49356313  0.24571703  0.99834531
   0.17029214  0.08259598  0.66969638
   0.58766801  0.17026506  0.32961193
   0.91536933  0.08469577  0.66277580
   0.24685370  0.49688404  0.00314100
   0.07468505  0.41555000  0.33242966
   0.50304278  0.49952402  0.99536023
   0.33787303  0.41511626  0.33378606
   0.16940800  0.33564300  0.66742968
   0.67209648  0.33590892  0.66806682
   0.24644019  0.75287147  0.00280884
   0.49972837  0.75003901  0.99879180
   0.33327757  0.66387648  0.33903487
   0.16491498  0.58575681  0.67125765
   0.58535097  0.66823464  0.33275154
   0.83091249  0.65912930  0.33252605
   0.66670431  0.58384066  0.66764175
   0.08275303  0.91448711  0.32711554
   0.33425578  0.91711109  0.33828767
   0.58330391  0.91945790  0.33823284
   0.83350124  0.91422609  0.33205621
   0.66778175  0.83249239  0.66921066
Direct configuration=     4
   0.99925630  0.00025084  0.99589669
   0.24928031  0.99876272  0.00145081
   0.49999450  0.00224038  0.99729838
   0.99858678  0.25051408  0.99784498
   0.24916334  0.24849250  0.99801094
   0.33393707  0.16570113  0.33275520
   0.74980703  0.25285083  0.00124087
   0.41747944  0.08399270  0.66359879
   0.83168946  0.16613142  0.33580027
   0.66704927  0.08443755  0.66598520
   0.00012858  0.49945675  0.00019928
   0.74906355  0.49922059  0.99931821
   0.58260347  0.41372244  0.33334732
   0.41835833  0.33318809  0.66406045
   0.83117708  0.41532503  0.33656800
   0.91800012  0.33466399  0.66589529
   0.99857056  0.74920702  0.00213482
   0.08262797  0.66629586  0.33409364
   0.75377218  0.75129242  0.99848785
   0.41674850  0.58280768  0.66913321
   0.91575184  0.58443279  0.66667614
   0.16686565  0.83440392  0.66535246
   0.41709705  0.83343187  0.67067372
   0.91928284  0.83206141  0.66923538
   0.75010214  0.00463792  0.00110452
   0.08390430  0.16920519  0.32349159
   0.49365035  0.24574481  0.99840949
   0.17018100  0.08251315  0.66975586
   0.58767223  0.17031375  0.32953628
   0.91532824  0.08467146  0.66266753
   0.24683152  0.49686109  0.00308662
   0.07460877  0.41558282  0.33235962
   0.50308436  0.49944903  0.99558252
   0.33784342  0.41511600  0.33380556
   0.16930922  0.33558504  0.66741340
   0.67208757  0.33592143  0.66809437
   0.24642865  0.75288889  0.00286901
   0.49980905  0.75009926  0.99874991
   0.33332644  0.66397288  0.33897301
   0.16491255  0.58567882  0.67112173
   0.58533864  0.66814807  0.33262173
   0.83089438  0.65912264  0.33268973
   0.66677167  0.58376360  0.66760729
   0.08268588  0.91451268  0.32726921
   0.33431143  0.91712319  0.33833453
   0.58322221  0.91949872  0.33808519
   0.83362352  0.91422139  0.33211823
   0.66778125  0.83248414  0.66919523
Direct configuration=     5
   0.99925167  0.00040917  0.99544634
   0.24898665  0.99862379  0.00096652
   0.49979627  0.00213345  0.99749618
   0.99848045  0.25055211  0.99797671
   0.24916937  0.24861624  0.99763966
   0.33392852  0.16556139  0.33245314
   0.74964136  0.25277490  0.00160035
   0.41767432  0.08396989  0.66342892
   0.83173339  0.16603868  0.33599820
   0.66732551  0.08444305  0.66629829
  -0.00000164  0.49943319  0.00061866
   0.74877040  0.49916635  0.99925640
   0.58260060  0.41361229  0.33317490
   0.41853889  0.33323964  0.66386189
   0.83128314  0.41521185  0.33686233
   0.91818127  0.33471088  0.66625202
   0.99838563  0.74917946  0.00181174
   0.08254158  0.66623309  0.33420651
   0.75362450  0.75135793  0.99822444
   0.41688111  0.58294558  0.66920121
   0.91570607  0.58442594  0.66670352
   0.16694934  0.83459579  0.66519391
   0.41708719  0.83331813  0.67075293
   0.91936395  0.83218562  0.66878424
   0.74982509  0.00447593  0.00127864
   0.08406576  0.16921648  0.32324987
   0.49351074  0.24572712  0.99826005
   0.17048218  0.08273107  0.66914965
   0.58760670  0.17004178  0.32964485
   0.91563091  0.08482611  0.66269244
   0.24669932  0.49681452  0.00327049
   0.07464796  0.41547429  0.33275593
   0.50296360  0.49955950  0.99566461
   0.33824812  0.41517936  0.33360873
   0.16958538  0.33588329  0.66746138
   0.67217760  0.33599151  0.66831613
   0.24624641  0.75283877  0.00305223
   0.49964807  0.75006702  0.99909828
   0.33313964  0.66378037  0.33940856
   0.16497025  0.58581783  0.67153319
   0.58532119  0.66809852  0.33258562
   0.83088420  0.65916978  0.33256192
   0.66697278  0.58392228  0.66725468
   0.08254902  0.91444981  0.32690367
   0.33435700  0.91688822  0.33805046
   0.58298492  0.91930140  0.33847080
   0.83374091  0.91429012  0.33185368
   0.66784271  0.83271654  0.66966517
Direct configuration=     6
   0.99923862  0.00085513  0.99417787
   0.24815951  0.99823248 -0.00039752
   0.49923791  0.00183227  0.99805333
   0.99818098  0.25065923  0.99834773
   0.24918634  0.24896476  0.99659391
   0.33390445  0.16516779  0.33160236
   0.74917473  0.25256102  0.00261290
   0.41822322  0.08390564  0.66295046
   0.83185713  0.16577747  0.33655571
   0.66810358  0.08445853  0.66718015
  -0.00036842  0.49936685  0.00179988
   0.74794471  0.49901357  0.99908229
   0.58259251  0.41330203  0.33268926
   0.41904745  0.33338482  0.66330261
   0.83158187  0.41489307  0.33769134
   0.91869151  0.33484297  0.66725680
   0.99786476  0.74910186  0.00090174
   0.08229825  0.66605631  0.33452441
   0.75320855  0.75154246  0.99748249
   0.41725460  0.58333399  0.66939275
   0.91557718  0.58440663  0.66678065
   0.16718506  0.83513619  0.66474733
   0.41705944  0.83299776  0.67097602
   0.91959239  0.83253548  0.66751354
   0.74904475  0.00401964  0.00176908
   0.08452053  0.16924827  0.32256906
   0.49311750  0.24567731  0.99783913
   0.17133049  0.08334486  0.66744216
   0.58742212  0.16927574  0.32995065
   0.91648345  0.08526171  0.66276258
   0.24632696  0.49668336  0.00378840
   0.07475835  0.41516860  0.33387219
   0.50262345  0.49987067  0.99589583
   0.33938802  0.41535780  0.33305434
   0.17036324  0.33672332  0.66759652
   0.67243118  0.33618889  0.66894075
   0.24573311  0.75269758  0.00356829
   0.49919464  0.74997621  0.00007951
   0.33261350  0.66323812  0.34063533
   0.16513278  0.58620937  0.67269210
   0.58527204  0.66795896  0.33248391
   0.83085553  0.65930253  0.33220194
   0.66753924  0.58436924  0.66626150
   0.08216352  0.91427272  0.32587407
   0.33448534  0.91622639  0.33725035
   0.58231658  0.91874561  0.33955691
   0.83407154  0.91448369  0.33110854
   0.66801584  0.83337112  0.67098882
Direct configuration=     7
   0.99924157  0.00075442  0.99446434
   0.24834631  0.99832086 -0.00008946
   0.49936401  0.00190029  0.99792751
   0.99824861  0.25063504  0.99826394
   0.24918251  0.24888605  0.99683008
   0.33390989  0.16525668  0.33179450
   0.74928011  0.25260932  0.00238423
   0.41809926  0.08392015  0.66305852
   0.83182919  0.16583646  0.33642980
   0.66792786  0.08445504  0.66698099
  -0.00028559  0.49938183  0.00153312
   0.74813118  0.49904808  0.99912161
   0.58259434  0.41337209  0.33279894
   0.41893260  0.33335203  0.66342892
   0.83151440  0.41496506  0.33750412
   0.91857628  0.33481314  0.66702988
   0.99798239  0.74911939  0.00110725
   0.08235320  0.66609624  0.33445262
   0.75330249  0.75150078  0.99765005
   0.41717025  0.58324627  0.66934949
   0.91560629  0.58441099  0.66676323
   0.16713183  0.83501414  0.66484818
   0.41706570  0.83307011  0.67092564
   0.91954080  0.83245647  0.66780051
   0.74922098  0.00412269  0.00165832
   0.08441782  0.16924109  0.32272282
   0.49320631  0.24568856  0.99793419
   0.17113891  0.08320624  0.66782778
   0.58746381  0.16944874  0.32988158
   0.91629091  0.08516333  0.66274674
   0.24641105  0.49671298  0.00367144
   0.07473342  0.41523764  0.33362010
   0.50270027  0.49980039  0.99584361
   0.33913059  0.41531750  0.33317954
   0.17018757  0.33653361  0.66756600
   0.67237391  0.33614431  0.66879969
   0.24584903  0.75272947  0.00345175
   0.49929704  0.74999672 -0.00014209
   0.33273232  0.66336058  0.34035828
   0.16509607  0.58612095  0.67243038
   0.58528314  0.66799047  0.33250688
   0.83086201  0.65927255  0.33228323
   0.66741131  0.58426830  0.66648580
   0.08225058  0.91431271  0.32610659
   0.33445635  0.91637586  0.33743105
   0.58246751  0.91887112  0.33931163
   0.83399687  0.91443997  0.33127682
   0.66797674  0.83322329  0.67068989
Direct configuration=     8
   0.99912399  0.00070945  0.99402854
   0.24837464  0.99843857 -0.00050503
   0.49918528  0.00188505  0.99798239
   0.99815805  0.25066217  0.99845431
   0.24920533  0.24888792  0.99644428
   0.33412787  0.16516243  0.33140452
   0.74906458  0.25271589  0.00258830
   0.41832572  0.08397066  0.66277565
   0.83196643  0.16579820  0.33679679
   0.66797449  0.08460726  0.66742156
  -0.00055816  0.49929108  0.00194340
   0.74805079  0.49881262  0.99907854
   0.58288187  0.41325196  0.33268868
   0.41926801  0.33335925  0.66298821
   0.83131478  0.41486611  0.33773159
   0.91862604  0.33489715  0.66738622
   0.99780376  0.74902648  0.00088702
   0.08222719  0.66596825  0.33457488
   0.75336741  0.75165225  0.99761002
   0.41723623  0.58335495  0.66941988
   0.91555777  0.58452275  0.66683348
   0.16697588  0.83498709  0.66438074
   0.41713769  0.83320703  0.67122370
   0.91972410  0.83259267  0.66726321
   0.74912635  0.00426131  0.00214496
   0.08458292  0.16931297  0.32272065
   0.49316223  0.24559559  0.99785114
   0.17126115  0.08332564  0.66721382
   0.58759522  0.16945291  0.33006981
   0.91667493  0.08542223  0.66244732
   0.24617514  0.49672854  0.00418156
   0.07470719  0.41517093  0.33409965
   0.50281431  0.49972745  0.99558705
   0.33910889  0.41522733  0.33315222
   0.17047506  0.33684501  0.66723739
   0.67250385  0.33607060  0.66888691
   0.24543839  0.75267890  0.00366153
   0.49888589  0.74997626  0.00043543
   0.33242194  0.66298205  0.34064932
   0.16492267  0.58617575  0.67288492
   0.58559706  0.66820727  0.33251336
   0.83080065  0.65902299  0.33202765
   0.66753618  0.58428113  0.66621873
   0.08226092  0.91428848  0.32567771
   0.33422829  0.91611496  0.33734637
   0.58237317  0.91867470  0.33957449
   0.83402557  0.91443710  0.33130880
   0.66820226  0.83339263  0.67070836
Direct configuration=     9
   0.99905057  0.00068137  0.99375637
   0.24839233  0.99851208 -0.00076457
   0.49907366  0.00187554  0.99801667
   0.99810149  0.25067911  0.99857320
   0.24921958  0.24888909  0.99620333
   0.33426400  0.16510357  0.33116096
   0.74892998  0.25278245  0.00271575
   0.41846716  0.08400221  0.66259899
   0.83205214  0.16577431  0.33702599
   0.66800362  0.08470233  0.66769671
  -0.00072839  0.49923441  0.00219963
   0.74800059  0.49866558  0.99905164
   0.58306144  0.41317693  0.33261982
   0.41947748  0.33336376  0.66271297
   0.83119012  0.41480432  0.33787365
   0.91865712  0.33494962  0.66760877
   0.99769220  0.74896846  0.00074947
   0.08214849  0.66588832  0.33465123
   0.75340795  0.75174685  0.99758502
   0.41727744  0.58342283  0.66946384
   0.91552747  0.58459255  0.66687735
   0.16687849  0.83497020  0.66408881
   0.41718265  0.83329253  0.67140985
   0.91983857  0.83267773  0.66692764
   0.74906725  0.00434788  0.00244888
   0.08468603  0.16935786  0.32271930
   0.49313471  0.24553752  0.99779927
   0.17133750  0.08340020  0.66683038
   0.58767730  0.16945551  0.33018736
   0.91691476  0.08558392  0.66226033
   0.24602781  0.49673826  0.00450014
   0.07469081  0.41512928  0.33439914
   0.50288554  0.49968189  0.99542682
   0.33909533  0.41517101  0.33313516
   0.17065461  0.33703949  0.66703216
   0.67258500  0.33602456  0.66894138
   0.24518194  0.75264732  0.00379254
   0.49862912  0.74996349  0.00079611
   0.33222809  0.66274565  0.34083108
   0.16481438  0.58620998  0.67316880
   0.58579310  0.66834266  0.33251741
   0.83076234  0.65886714  0.33186803
   0.66761416  0.58428915  0.66605194
   0.08226737  0.91427334  0.32540986
   0.33408585  0.91595202  0.33729348
   0.58231426  0.91855203  0.33973865
   0.83404350  0.91443531  0.33132877
   0.66834310  0.83349839  0.67071989
Direct configuration=    10
   0.99904265  0.00064227  0.99370520
   0.24849107  0.99862824 -0.00103189
   0.49902457  0.00192702  0.99811239
   0.99813936  0.25067359  0.99858235
   0.24921521  0.24886210  0.99598295
   0.33446849  0.16514649  0.33084910
   0.74893475  0.25278116  0.00281676
   0.41837538  0.08393963  0.66243229
   0.83203205  0.16588383  0.33720463
   0.66797040  0.08472263  0.66784463
  -0.00091413  0.49910803  0.00235378
   0.74816914  0.49871087  0.99893796
   0.58310171  0.41320398  0.33248045
   0.41961001  0.33337142  0.66250709
   0.83119666  0.41475866  0.33794681
   0.91855922  0.33501604  0.66782478
   0.99765759  0.74896938  0.00070614
   0.08195110  0.66570420  0.33468682
   0.75346518  0.75172848  0.99750405
   0.41737268  0.58352435  0.66970407
   0.91550782  0.58461943  0.66693608
   0.16682874  0.83490763  0.66397359
   0.41715304  0.83338794  0.67162322
   0.91985145  0.83263675  0.66683234
   0.74918160  0.00453836  0.00260461
   0.08475828  0.16932674  0.32232280
   0.49319008  0.24543954  0.99767441
   0.17139612  0.08339263  0.66669588
   0.58776094  0.16931254  0.33023748
   0.91693091  0.08581532  0.66237270
   0.24596406  0.49669344  0.00461950
   0.07438391  0.41509612  0.33457500
   0.50297282  0.49962090  0.99521781
   0.33917228  0.41514457  0.33300174
   0.17081393  0.33724166  0.66719918
   0.67264722  0.33598079  0.66891140
   0.24490545  0.75270005  0.00371561
   0.49840313  0.74988260  0.00086577
   0.33208545  0.66262092  0.34116495
   0.16470557  0.58627149  0.67347154
   0.58579436  0.66826103  0.33248656
   0.83088122  0.65877478  0.33162359
   0.66762536  0.58426201  0.66614649
   0.08235464  0.91427086  0.32494122
   0.33394415  0.91584294  0.33734239
   0.58231568  0.91865186  0.34000490
   0.83419442  0.91449412  0.33133394
   0.66841427  0.83351063  0.67095494
