       N       E                     dE             d eps       ncg     rms          rms(c)
DAV:   1    -0.341068403279E+03   -0.34107E+03   -0.22614E+03 38889   0.672E+01
RMM:   2    -0.358343889842E+03   -0.17275E+02   -0.17221E+02 37767   0.288E+01
RMM:   3    -0.358535432818E+03   -0.19154E+00   -0.57324E+00 38539   0.435E+00
RMM:   4    -0.358579003338E+03   -0.43571E-01   -0.48520E-01 42260   0.113E+00
RMM:   5    -0.358583341117E+03   -0.43378E-02   -0.60632E-02 47042   0.282E-01
RMM:   6    -0.358583716978E+03   -0.37586E-03   -0.62794E-03 49290   0.761E-02
RMM:   7    -0.358583737818E+03   -0.20840E-04   -0.84975E-04 47429   0.222E-02
RMM:   8    -0.358583751983E+03   -0.14165E-04   -0.22496E-04 32259   0.782E-03
RMM:   9    -0.358583752707E+03   -0.72323E-06   -0.40502E-05 23652   0.304E-03
RMM:  10    -0.358583753193E+03   -0.48598E-06   -0.12395E-05 19762   0.166E-03
RMM:  11    -0.358583753237E+03   -0.44587E-07   -0.35528E-06 18231   0.997E-04
   1 F= -.37657501E+03 E0= -.37657501E+03  d E =0.000000E+00  mag=    43.1270
