 vasp.5.4.4.18Apr17-6-g9f103f2a35 (build Dec 15 2018 21:27:11) complex          
  
 executed on             LinuxIFC date 2022.02.17  21:10:11
 running on   72 total cores
 distrk:  each k-point on   72 cores,    1 groups
 distr:  one band on NCORES_PER_BAND=  24 cores,    3 groups


--------------------------------------------------------------------------------------------------------


 INCAR:
 POTCAR:    PAW_PBE Ni 02Aug2007                  
 POTCAR:    PAW_PBE O 08Apr2002                   

 ----------------------------------------------------------------------------- 
|                                                                             |
|           W    W    AA    RRRRR   N    N  II  N    N   GGGG   !!!           |
|           W    W   A  A   R    R  NN   N  II  NN   N  G    G  !!!           |
|           W    W  A    A  R    R  N N  N  II  N N  N  G       !!!           |
|           W WW W  AAAAAA  RRRRR   N  N N  II  N  N N  G  GGG   !            |
|           WW  WW  A    A  R   R   N   NN  II  N   NN  G    G                |
|           W    W  A    A  R    R  N    N  II  N    N   GGGG   !!!           |
|                                                                             |
|      For optimal performance we recommend to set                            |
|        NCORE= 4 - approx SQRT( number of cores)                             |
|      NCORE specifies how many cores store one orbital (NPAR=cpu/NCORE).     |
|      This setting can  greatly improve the performance of VASP for DFT.     |
|      The default,   NCORE=1            might be grossly inefficient         |
|      on modern multi-core architectures or massively parallel machines.     |
|      Do your own testing !!!!                                               |
|      Unfortunately you need to use the default for GW and RPA calculations. |
|      (for HF NCORE is supported but not extensively tested yet)             |
|                                                                             |
 ----------------------------------------------------------------------------- 

 POTCAR:    PAW_PBE Ni 02Aug2007                  
   VRHFIN =Ni:                                                                  
   LEXCH  = PE                                                                  
   EATOM  =  1077.6739 eV,   79.2068 Ry                                         
                                                                                
   TITEL  = PAW_PBE Ni 02Aug2007                                                
   LULTRA =        F    use ultrasoft PP ?                                      
   IUNSCR =        1    unscreen: 0-lin 1-nonlin 2-no                           
   RPACOR =    2.000    partial core radius                                     
   POMASS =   58.690; ZVAL   =   10.000    mass and valenz                      
   RCORE  =    2.300    outmost cutoff radius                                   
   RWIGS  =    2.430; RWIGS  =    1.286    wigner-seitz radius (au A)           
   ENMAX  =  269.532; ENMIN  =  202.149 eV                                      
   RCLOC  =    1.201    cutoff for local pot                                    
   LCOR   =        T    correct aug charges                                     
   LPAW   =        T    paw PP                                                  
   EAUG   =  544.565                                                            
   DEXC   =    0.000                                                            
   RMAX   =    2.357    core radius for proj-oper                               
   RAUG   =    1.300    factor for augmentation sphere                          
   RDEP   =    2.390    radius for radial grids                                 
   RDEPT  =    1.838    core radius for aug-charge                              
                                                                                
   Atomic configuration                                                         
    9 entries                                                                   
     n  l   j            E        occ.                                          
     1  0  0.50     -8206.4253   2.0000                                         
     2  0  0.50      -976.1748   2.0000                                         
     2  1  1.50      -839.0571   6.0000                                         
     3  0  0.50      -105.9991   2.0000                                         
     3  1  1.50       -66.4603   6.0000                                         
     3  2  2.50        -4.6458   9.0000                                         
     4  0  0.50        -4.4926   1.0000                                         
     4  1  1.50        -4.0817   0.0000                                         
     4  3  2.50        -1.3606   0.0000                                         
   Description                                                                  
     l       E           TYP  RCUT    TYP  RCUT                                 
     2     -4.6457903     23  2.300                                             
     2     -6.0063729     23  2.300                                             
     0     -4.4925590     23  2.300                                             
     0      5.0102601     23  2.300                                             
     1     -2.7211652     23  2.300                                             
     1     16.5183231     23  2.300                                             
  local pseudopotential read in
  partial core-charges read in
  partial kinetic energy density read in
  atomic valenz-charges read in
  non local Contribution for L=           2  read in
    real space projection operators read in
  non local Contribution for L=           2  read in
    real space projection operators read in
  non local Contribution for L=           0  read in
    real space projection operators read in
  non local Contribution for L=           0  read in
    real space projection operators read in
  non local Contribution for L=           1  read in
    real space projection operators read in
  non local Contribution for L=           1  read in
    real space projection operators read in
    PAW grid and wavefunctions read in
 
   number of l-projection  operators is LMAX  =           6
   number of lm-projection operators is LMMAX =          18
 
 POTCAR:    PAW_PBE O 08Apr2002                   
   VRHFIN =O: s2p4                                                              
   LEXCH  = PE                                                                  
   EATOM  =   432.3788 eV,   31.7789 Ry                                         
                                                                                
   TITEL  = PAW_PBE O 08Apr2002                                                 
   LULTRA =        F    use ultrasoft PP ?                                      
   IUNSCR =        1    unscreen: 0-lin 1-nonlin 2-no                           
   RPACOR =    1.200    partial core radius                                     
   POMASS =   16.000; ZVAL   =    6.000    mass and valenz                      
   RCORE  =    1.520    outmost cutoff radius                                   
   RWIGS  =    1.550; RWIGS  =    0.820    wigner-seitz radius (au A)           
   ENMAX  =  400.000; ENMIN  =  300.000 eV                                      
   ICORE  =        2    local potential                                         
   LCOR   =        T    correct aug charges                                     
   LPAW   =        T    paw PP                                                  
   EAUG   =  605.392                                                            
   DEXC   =    0.000                                                            
   RMAX   =    1.553    core radius for proj-oper                               
   RAUG   =    1.300    factor for augmentation sphere                          
   RDEP   =    1.550    radius for radial grids                                 
   RDEPT  =    1.329    core radius for aug-charge                              
                                                                                
   Atomic configuration                                                         
    4 entries                                                                   
     n  l   j            E        occ.                                          
     1  0  0.50      -514.6923   2.0000                                         
     2  0  0.50       -23.9615   2.0000                                         
     2  1  0.50        -9.0305   4.0000                                         
     3  2  1.50        -9.5241   0.0000                                         
   Description                                                                  
     l       E           TYP  RCUT    TYP  RCUT                                 
     0    -23.9615318     23  1.200                                             
     0     -9.5240782     23  1.200                                             
     1     -9.0304911     23  1.520                                             
     1      8.1634956     23  1.520                                             
     2     -9.5240782      7  1.500                                             
  local pseudopotential read in
  partial core-charges read in
  partial kinetic energy density read in
  kinetic energy density of atom read in
  atomic valenz-charges read in
  non local Contribution for L=           0  read in
    real space projection operators read in
  non local Contribution for L=           0  read in
    real space projection operators read in
  non local Contribution for L=           1  read in
    real space projection operators read in
  non local Contribution for L=           1  read in
    real space projection operators read in
    PAW grid and wavefunctions read in
 
   number of l-projection  operators is LMAX  =           4
   number of lm-projection operators is LMMAX =           8
 
 Optimization of the real space projectors (new method)

 maximal supplied QI-value         = 16.25
 optimisation between [QCUT,QGAM] = [ 11.54, 23.24] = [ 37.28,151.24] Ry 
 Optimized for a Real-space Cutoff    1.45 Angstroem

   l    n(q)    QCUT    max X(q) W(low)/X(q) W(high)/X(q)  e(spline) 
   2      9    11.539    60.317    0.19E-03    0.47E-04    0.16E-06
   2      9    11.539    55.921    0.19E-03    0.48E-04    0.16E-06
   0     10    11.539    51.690    0.80E-04    0.50E-04    0.24E-06
   0     10    11.539    30.015    0.73E-04    0.45E-04    0.22E-06
   1     10    11.539    18.849    0.87E-04    0.16E-03    0.71E-07
   1     10    11.539    14.624    0.73E-04    0.13E-03    0.64E-07
 Optimization of the real space projectors (new method)

 maximal supplied QI-value         = 24.76
 optimisation between [QCUT,QGAM] = [ 11.64, 23.27] = [ 37.91,151.63] Ry 
 Optimized for a Real-space Cutoff    1.14 Angstroem

   l    n(q)    QCUT    max X(q) W(low)/X(q) W(high)/X(q)  e(spline) 
   0      8    11.635    20.381    0.10E-03    0.33E-03    0.24E-06
   0      8    11.635    15.268    0.11E-03    0.35E-03    0.26E-06
   1      7    11.635     5.964    0.24E-03    0.31E-03    0.30E-06
   1      7    11.635     5.382    0.22E-03    0.25E-03    0.26E-06
  PAW_PBE Ni 02Aug2007                  :
 energy of atom  1       EATOM=-1077.6739
 kinetic energy error for atom=    0.0030 (will be added to EATOM!!)
  PAW_PBE O 08Apr2002                   :
 energy of atom  2       EATOM= -432.3788
 kinetic energy error for atom=    0.0208 (will be added to EATOM!!)
 
 
 POSCAR: POSCAR                                  
  positions in direct lattice
  velocities in cartesian coordinates
 exchange correlation table for  LEXCH =        8
   RHO(1)=    0.500       N(1)  =     2000
   RHO(2)=  100.500       N(2)  =     4000

 VTST: version 3.2, (02/03/18)

 CHAIN: initializing optimizer
 
 OPT: Using VASP Dynamics algorithm
 CHAIN: Read ICHAIN            0
 
 POSCAR: POSCAR                                  
  positions in direct lattice
  velocities in cartesian coordinates
 


--------------------------------------------------------------------------------------------------------


 ion  position               nearest neighbor table
   1  0.113  0.226  0.095-  15 2.49  19 2.49   3 2.49   5 2.49  13 2.49  17 2.49  21 2.49  49 2.49
                            61 2.49
   2  0.111  0.228  0.383-  65 1.84  14 2.43  18 2.43  20 2.47  22 2.49  62 2.50  24 2.52   4 2.52
                             6 2.55  50 2.55
   3  0.196  0.142  0.191-  24 2.44   4 2.44   8 2.44   5 2.49  49 2.49   1 2.49   7 2.49  15 2.49
                            19 2.49  23 2.49  51 2.49  63 2.49
   4  0.030  0.059  0.285-  62 2.43   3 2.44  63 2.44  15 2.44  24 2.49   8 2.49  52 2.49  20 2.49
                            16 2.50  64 2.50   2 2.52  50 2.52
   5  0.363  0.226  0.095-   3 2.49  23 2.49   7 2.49   9 2.49   1 2.49  21 2.49  25 2.49  49 2.49
                            53 2.49
   6  0.367  0.227  0.383-  65 1.84  10 2.43  26 2.43  28 2.47  54 2.49  22 2.49   8 2.52  24 2.53
                            50 2.55   2 2.55
   7  0.446  0.142  0.191-   8 2.44  12 2.44  28 2.47   9 2.49  53 2.49   5 2.49  11 2.49   3 2.49
                            23 2.49  51 2.49  27 2.49  55 2.49
   8  0.279  0.059  0.285-  54 2.43   3 2.44  51 2.44   7 2.44  24 2.49   4 2.49  52 2.49  28 2.49
                            56 2.50  12 2.50   6 2.52  50 2.52
   9  0.613  0.226  0.095-   7 2.49  27 2.49  11 2.49  13 2.49   5 2.49  25 2.49  29 2.49  53 2.49
                            57 2.49
  10  0.611  0.227  0.383-  68 1.84   6 2.43  26 2.43  28 2.47  54 2.49  30 2.49  12 2.52  32 2.53
                            58 2.55  14 2.55
  11  0.696  0.142  0.191-  32 2.44  16 2.44  12 2.44  13 2.49  57 2.49   9 2.49  15 2.49   7 2.49
                            27 2.49  55 2.49  31 2.49  59 2.49
  12  0.530  0.059  0.285-  54 2.43  11 2.44  55 2.44   7 2.44  16 2.49  32 2.49  60 2.49  28 2.49
                            56 2.50   8 2.50  10 2.52  58 2.53
  13  0.863  0.226  0.095-  11 2.49  31 2.49  15 2.49   9 2.49   1 2.49  29 2.49  17 2.49  57 2.49
                            61 2.49
  14  0.867  0.228  0.383-  68 1.84   2 2.43  18 2.43  20 2.47  30 2.49  62 2.49  16 2.52  32 2.52
                            58 2.55  10 2.55
  15  0.946  0.142  0.191-   4 2.44  16 2.44  20 2.47   1 2.49  61 2.49  13 2.49   3 2.49  11 2.49
                            31 2.49  59 2.49  19 2.49  63 2.49
  16  0.779  0.059  0.285-  62 2.43  11 2.44  59 2.44  15 2.44  32 2.49  12 2.49  60 2.49  20 2.49
                             4 2.50  64 2.50  14 2.52  58 2.53
  17  0.113  0.476  0.095-  31 2.49  35 2.49  19 2.49  21 2.49  29 2.49  13 2.49  33 2.49   1 2.49
                            37 2.49
  18  0.111  0.472  0.383-  67 1.84   2 2.43  14 2.43  20 2.47  22 2.49  30 2.49  40 2.52  36 2.52
                            38 2.55  34 2.55
  19  0.196  0.392  0.191-  40 2.44  24 2.44  20 2.47  21 2.49   1 2.49  17 2.49  31 2.49  23 2.49
                            15 2.49  35 2.49  39 2.49   3 2.49
  20  0.030  0.309  0.286-   2 2.47  14 2.47  18 2.47  19 2.47  15 2.47  31 2.47  40 2.49  36 2.49
                            24 2.49   4 2.49  32 2.49  16 2.49
  21  0.363  0.476  0.095-  19 2.49  39 2.49  23 2.49  25 2.49  17 2.49   5 2.49  37 2.49   1 2.49
                            41 2.49
  22  0.363  0.476  0.377-  24 2.43  44 2.43  40 2.43   2 2.49  18 2.49  42 2.49  26 2.49   6 2.49
                            38 2.50
  23  0.446  0.392  0.191-  24 2.44  44 2.44  28 2.47  25 2.49   5 2.49  21 2.49  19 2.49  27 2.49
                             7 2.49  39 2.49  43 2.49   3 2.49
  24  0.279  0.309  0.285-  22 2.43   3 2.44  23 2.44  19 2.44   8 2.49   4 2.49  28 2.49  20 2.49
                            44 2.50  40 2.50   2 2.52   6 2.53
  25  0.613  0.476  0.095-  23 2.49  43 2.49  27 2.49  29 2.49  21 2.49   9 2.49  41 2.49   5 2.49
                            45 2.49
  26  0.611  0.472  0.383-  66 1.84   6 2.43  10 2.43  28 2.47  22 2.49  30 2.49  44 2.53  48 2.53
                            42 2.55  46 2.55
  27  0.696  0.392  0.191-  48 2.44  32 2.44  28 2.47  29 2.49   9 2.49  25 2.49  23 2.49  31 2.49
                            11 2.49  43 2.49  47 2.49   7 2.49
  28  0.529  0.309  0.286-   6 2.47  10 2.47  26 2.47   7 2.47  27 2.47  23 2.47  24 2.49   8 2.49
                            12 2.49  48 2.49  32 2.49  44 2.49
  29  0.863  0.476  0.095-  27 2.49  47 2.49  31 2.49  25 2.49  17 2.49  13 2.49  33 2.49  45 2.49
                             9 2.49
  30  0.863  0.476  0.377-  32 2.43  48 2.43  36 2.43  14 2.49  18 2.49  46 2.49  26 2.49  10 2.49
                            34 2.49
  31  0.946  0.392  0.191-  36 2.44  32 2.44  20 2.47  17 2.49  13 2.49  29 2.49  27 2.49  19 2.49
                            15 2.49  35 2.49  11 2.49  47 2.49
  32  0.779  0.309  0.285-  30 2.43  11 2.44  31 2.44  27 2.44  16 2.49  12 2.49  28 2.49  20 2.49
                            48 2.50  36 2.50  14 2.52  10 2.53
  33  0.113  0.726  0.095-  47 2.49  51 2.49  35 2.49  37 2.49  45 2.49  29 2.49  49 2.49  17 2.49
                            53 2.49
  34  0.111  0.728  0.383-  67 1.84  46 2.43  50 2.43  52 2.47  54 2.49  30 2.49  36 2.52  56 2.52
                            18 2.55  38 2.55
  35  0.196  0.642  0.191-  56 2.44  36 2.44  40 2.44  37 2.49  17 2.49  33 2.49  47 2.49  39 2.49
                            31 2.49  51 2.49  55 2.49  19 2.49
  36  0.030  0.559  0.285-  30 2.43  35 2.44  31 2.44  47 2.44  56 2.49  40 2.49  20 2.49  52 2.49
                            48 2.50  32 2.50  34 2.52  18 2.52
  37  0.363  0.726  0.095-  35 2.49  55 2.49  39 2.49  41 2.49  33 2.49  21 2.49  53 2.49  17 2.49
                            57 2.49
  38  0.367  0.728  0.383-  67 1.84  42 2.43  58 2.43  60 2.47  54 2.49  22 2.50  40 2.52  56 2.53
                            18 2.55  34 2.55
  39  0.446  0.642  0.191-  40 2.44  44 2.44  60 2.47  41 2.49  21 2.49  37 2.49  35 2.49  43 2.49
                            23 2.49  55 2.49  59 2.49  19 2.49
  40  0.279  0.559  0.285-  22 2.43  35 2.44  19 2.44  39 2.44  56 2.49  36 2.49  60 2.49  20 2.49
                            44 2.50  24 2.50  18 2.52  38 2.52
  41  0.613  0.726  0.095-  39 2.49  59 2.49  43 2.49  45 2.49  37 2.49  25 2.49  57 2.49  21 2.49
                            61 2.49
  42  0.611  0.727  0.383-  66 1.84  38 2.43  58 2.43  60 2.47  22 2.49  62 2.50  44 2.52  64 2.53
                            26 2.55  46 2.55
  43  0.696  0.642  0.191-  64 2.44  48 2.44  44 2.44  45 2.49  25 2.49  41 2.49  39 2.49  47 2.49
                            27 2.49  59 2.49  63 2.49  23 2.49
  44  0.530  0.559  0.285-  22 2.43  43 2.44  23 2.44  39 2.44  48 2.49  64 2.49  28 2.49  60 2.49
                            24 2.50  40 2.50  42 2.52  26 2.53
  45  0.863  0.726  0.095-  43 2.49  63 2.49  47 2.49  41 2.49  33 2.49  29 2.49  49 2.49  61 2.49
                            25 2.49
  46  0.867  0.727  0.383-  66 1.84  34 2.43  50 2.43  52 2.47  62 2.49  30 2.49  48 2.52  64 2.52
                            42 2.55  26 2.55
  47  0.946  0.642  0.191-  36 2.44  48 2.44  52 2.47  33 2.49  29 2.49  45 2.49  43 2.49  35 2.49
                            31 2.49  51 2.49  27 2.49  63 2.49
  48  0.779  0.559  0.285-  30 2.43  43 2.44  27 2.44  47 2.44  44 2.49  64 2.49  28 2.49  52 2.49
                            32 2.50  36 2.50  46 2.52  26 2.53
  49  0.113  0.976  0.095-  63 2.49   3 2.49  51 2.49  61 2.49  53 2.49   1 2.49   5 2.49  33 2.49
                            45 2.49
  50  0.111  0.972  0.383-  65 1.84  34 2.43  46 2.43  52 2.47  62 2.49  54 2.49   4 2.52   8 2.52
                             6 2.55   2 2.55
  51  0.196  0.892  0.191-   8 2.44  56 2.44  52 2.47  53 2.49  33 2.49  49 2.49  55 2.49  63 2.49
                            35 2.49  47 2.49   3 2.49   7 2.49
  52  0.029  0.809  0.286-  34 2.47  50 2.47  46 2.47  47 2.47  63 2.47  51 2.47   8 2.49  64 2.49
                             4 2.49  36 2.49  56 2.49  48 2.49
  53  0.363  0.976  0.095-  51 2.49   7 2.49  55 2.49  49 2.49  57 2.49   5 2.49   9 2.49  33 2.49
                            37 2.49
  54  0.363  0.976  0.377-  56 2.43  12 2.43   8 2.43  34 2.49  38 2.49   6 2.49  10 2.49  50 2.49
                            58 2.50
  55  0.446  0.892  0.191-  12 2.44  56 2.44  60 2.47  57 2.49  37 2.49  53 2.49  59 2.49  51 2.49
                            11 2.49  39 2.49   7 2.49  35 2.49
  56  0.279  0.809  0.285-  54 2.43  35 2.44  51 2.44  55 2.44  40 2.49  36 2.49  60 2.49  52 2.49
                             8 2.50  12 2.50  34 2.52  38 2.53
  57  0.613  0.976  0.095-  55 2.49  11 2.49  59 2.49  53 2.49  61 2.49   9 2.49  13 2.49  37 2.49
                            41 2.49
  58  0.611  0.972  0.383-  68 1.84  38 2.43  42 2.43  60 2.47  62 2.49  54 2.50  12 2.53  16 2.53
                            10 2.55  14 2.55
  59  0.696  0.892  0.191-  16 2.44  64 2.44  60 2.47  61 2.49  41 2.49  57 2.49  63 2.49  55 2.49
                            15 2.49  43 2.49  11 2.49  39 2.49
  60  0.529  0.809  0.286-  38 2.47  58 2.47  42 2.47  39 2.47  59 2.47  55 2.47  12 2.49  64 2.49
                            40 2.49  16 2.49  56 2.49  44 2.49
  61  0.863  0.976  0.095-  59 2.49  15 2.49  63 2.49  49 2.49  57 2.49  13 2.49   1 2.49  41 2.49
                            45 2.49
  62  0.863  0.976  0.377-  64 2.43   4 2.43  16 2.43  50 2.49  46 2.49  58 2.49  14 2.49  42 2.50
                             2 2.50
  63  0.946  0.892  0.191-   4 2.44  64 2.44  52 2.47  49 2.49  45 2.49  61 2.49  51 2.49  59 2.49
                             3 2.49  47 2.49  15 2.49  43 2.49
  64  0.779  0.809  0.285-  62 2.43  43 2.44  59 2.44  63 2.44  44 2.49  48 2.49  60 2.49  52 2.49
                            16 2.50   4 2.50  46 2.52  42 2.53
  65  0.196  0.142  0.435-   2 1.84   6 1.84  50 1.84
  66  0.696  0.642  0.435-  26 1.84  42 1.84  46 1.84
  67  0.196  0.642  0.435-  18 1.84  38 1.84  34 1.84
  68  0.696  0.142  0.435-  14 1.84  10 1.84  58 1.84
 

IMPORTANT INFORMATION: All symmetrisations will be switched off!
NOSYMM: (Re-)initialisation of all symmetry stuff for point group C_1.

 
 

Automatic generation of k-mesh.
 generate k-points for:    4    4    2
Space group operators:
 irot       det(A)        alpha          n_x          n_y          n_z        tau_x        tau_y        tau_z
    1     1.000000     0.000000     1.000000     0.000000     0.000000     0.000000     0.000000     0.000000
 
 Subroutine IBZKPT returns following result:
 ===========================================
 
 Found     20 irreducible k-points:
 
 Following reciprocal coordinates:
            Coordinates               Weight
  0.000000  0.000000  0.000000      1.000000
  0.250000  0.000000  0.000000      2.000000
  0.500000  0.000000  0.000000      1.000000
  0.000000  0.250000  0.000000      2.000000
  0.250000  0.250000  0.000000      2.000000
  0.500000  0.250000  0.000000      2.000000
 -0.250000  0.250000  0.000000      2.000000
  0.000000  0.500000  0.000000      1.000000
  0.250000  0.500000  0.000000      2.000000
  0.500000  0.500000  0.000000      1.000000
  0.000000  0.000000  0.500000      1.000000
  0.250000  0.000000  0.500000      2.000000
  0.500000  0.000000  0.500000      1.000000
  0.000000  0.250000  0.500000      2.000000
  0.250000  0.250000  0.500000      2.000000
  0.500000  0.250000  0.500000      2.000000
 -0.250000  0.250000  0.500000      2.000000
  0.000000  0.500000  0.500000      1.000000
  0.250000  0.500000  0.500000      2.000000
  0.500000  0.500000  0.500000      1.000000
 
 Following cartesian coordinates:
            Coordinates               Weight
  0.000000  0.000000  0.000000      1.000000
  0.025082  0.014481  0.000000      2.000000
  0.050164  0.028962  0.000000      1.000000
  0.000000  0.028962  0.000000      2.000000
  0.025082  0.043443  0.000000      2.000000
  0.050164  0.057924  0.000000      2.000000
 -0.025082  0.014481  0.000000      2.000000
  0.000000  0.057924  0.000000      1.000000
  0.025082  0.072405  0.000000      2.000000
  0.050164  0.086886  0.000000      1.000000
  0.000000  0.000000  0.023692      1.000000
  0.025082  0.014481  0.023692      2.000000
  0.050164  0.028962  0.023692      1.000000
  0.000000  0.028962  0.023692      2.000000
  0.025082  0.043443  0.023692      2.000000
  0.050164  0.057924  0.023692      2.000000
 -0.025082  0.014481  0.023692      2.000000
  0.000000  0.057924  0.023692      1.000000
  0.025082  0.072405  0.023692      2.000000
  0.050164  0.086886  0.023692      1.000000
 
 TETIRR: Found     96 inequivalent tetrahedra from      192


--------------------------------------------------------------------------------------------------------




 Dimension of arrays:
   k-points           NKPTS =     20   k-points in BZ     NKDIM =     20   number of bands    NBANDS=    432
   number of dos      NEDOS =    301   number of ions     NIONS =     68
   non local maximal  LDIM  =      6   non local SUM 2l+1 LMDIM =     18
   total plane-waves  NPLWV = ******
   max r-space proj   IRMAX =   7188   max aug-charges    IRDMAX=  18478
   dimension x,y,z NGX =    80 NGY =   80 NGZ =  160
   dimension x,y,z NGXF=   160 NGYF=  160 NGZF=  320
   support grid    NGXF=   160 NGYF=  160 NGZF=  320
   ions per type =              64   4
   NGX,Y,Z   is equivalent  to a cutoff of  13.34, 13.34, 12.60 a.u.
   NGXF,Y,Z  is equivalent  to a cutoff of  26.69, 26.69, 25.21 a.u.

 SYSTEM =  SQS-NiFe                                
 POSCAR =  POSCAR                                  

 Startparameter for this run:
   NWRITE =      2    write-flag & timer
   PREC   = accura    normal or accurate (medium, high low for compatibility)
   ISTART =      1    job   : 0-new  1-cont  2-samecut
   ICHARG =     11    charge: 1-file 2-atom 10-const
   ISPIN  =      2    spin polarized calculation?
   LNONCOLLINEAR =      F non collinear calculations
   LSORBIT =      F    spin-orbit coupling
   INIWAV =      1    electr: 0-lowe 1-rand  2-diag
   LASPH  =      F    aspherical Exc in radial PAW
   METAGGA=      F    non-selfconsistent MetaGGA calc.

 Electronic Relaxation 1
   ENCUT  =  520.0 eV  38.22 Ry    6.18 a.u.  18.53 18.53 39.24*2*pi/ulx,y,z
   ENINI  =  520.0     initial cutoff
   ENAUG  =  605.4 eV  augmentation charge cutoff
   NELM   =    200;   NELMIN=  2; NELMDL=  0     # of ELM steps 
   EDIFF  = 0.1E-05   stopping-criterion for ELM
   LREAL  =      T    real-space projection
   NLSPLINE    = F    spline interpolate recip. space projectors
   LCOMPAT=      F    compatible to vasp.4.4
   GGA_COMPAT  = T    GGA compatible to vasp.4.4-vasp.4.6
   LMAXPAW     = -100 max onsite density
   LMAXMIX     =    2 max onsite mixed and CHGCAR
   VOSKOWN=      0    Vosko Wilk Nusair interpolation
   ROPT   =   -0.00025  -0.00025
 Ionic relaxation
   EDIFFG = -.2E-01   stopping-criterion for IOM
   NSW    =      0    number of steps for IOM
   NBLOCK =      1;   KBLOCK =      1    inner block; outer block 
   IBRION =     -1    ionic relax: 0-MD 1-quasi-New 2-CG
   NFREE  =      0    steps in history (QN), initial steepest desc. (CG)
   ISIF   =      2    stress and relaxation
   IWAVPR =     10    prediction:  0-non 1-charg 2-wave 3-comb
   ISYM   =      0    0-nonsym 1-usesym 2-fastsym
   LCORR  =      T    Harris-Foulkes like correction to forces

   POTIM  = 0.5000    time-step for ionic-motion
   TEIN   =    0.0    initial temperature
   TEBEG  =    0.0;   TEEND  =   0.0 temperature during run
   SMASS  =  -3.00    Nose mass-parameter (am)
   estimated Nose-frequenzy (Omega)   =  0.10E-29 period in steps =****** mass=  -0.227E-26a.u.
   SCALEE = 1.0000    scale energy and forces
   NPACO  =    256;   APACO  = 16.0  distance and # of slots for P.C.
   PSTRESS=    0.0 pullay stress

  Mass of Ions in am
   POMASS =  58.69 16.00
  Ionic Valenz
   ZVAL   =  10.00  6.00
  Atomic Wigner-Seitz radii
   RWIGS  =  -1.00 -1.00
  virtual crystal weights 
   VCA    =   1.00  1.00
   NELECT =     664.0000    total number of electrons
   NUPDOWN=      -1.0000    fix difference up-down

 DOS related values:
   EMIN   =  10.00;   EMAX   =-10.00  energy-range for DOS
   EFERMI =   0.00
   ISMEAR =    -5;   SIGMA  =   0.20  broadening in eV -4-tet -1-fermi 0-gaus

 Electronic relaxation 2 (details)
   IALGO  =     68    algorithm
   LDIAG  =      T    sub-space diagonalisation (order eigenvalues)
   LSUBROT=      F    optimize rotation matrix (better conditioning)
   TURBO    =      0    0=normal 1=particle mesh
   IRESTART =      0    0=no restart 2=restart with 2 vectors
   NREBOOT  =      0    no. of reboots
   NMIN     =      0    reboot dimension
   EREF     =   0.00    reference energy to select bands
   IMIX   =      4    mixing-type and parameters
     AMIX     =   0.40;   BMIX     =  1.00
     AMIX_MAG =   1.60;   BMIX_MAG =  1.00
     AMIN     =   0.10
     WC   =   100.;   INIMIX=   1;  MIXPRE=   1;  MAXMIX= -45

 Intra band minimization:
   WEIMIN = 0.0000     energy-eigenvalue tresh-hold
   EBREAK =  0.58E-09  absolut break condition
   DEPER  =   0.30     relativ break condition  

   TIME   =   0.40     timestep for ELM

  volume/ion in A,a.u.               =      26.70       180.19
  Fermi-wavevector in a.u.,A,eV,Ry     =   1.170703  2.212308 18.647406  1.370546
  Thomas-Fermi vector in A             =   2.307158
 
 Write flags
   LWAVE        =      F    write WAVECAR
   LDOWNSAMPLE  =      F    k-point downsampling of WAVECAR
   LCHARG       =      F    write CHGCAR
   LVTOT        =      F    write LOCPOT, total local potential
   LVHAR        =      F    write LOCPOT, Hartree potential only
   LELF         =      F    write electronic localiz. function (ELF)
   LORBIT       =     11    0 simple, 1 ext, 2 COOP (PROOUT), +10 PAW based schemes


 Dipole corrections
   LMONO  =      F    monopole corrections only (constant potential shift)
   LDIPOL =      T    correct potential (dipole corrections)
   IDIPOL =      3    1-x, 2-y, 3-z, 4-all directions 
   EPSILON=  1.0000000 bulk dielectric constant

 Exchange correlation treatment:
   GGA     =    --    GGA type
   LEXCH   =     8    internal setting for exchange type
   VOSKOWN=      0    Vosko Wilk Nusair interpolation
   LHFCALC =     F    Hartree Fock is set to
   LHFONE  =     F    Hartree Fock one center treatment
   AEXX    =    0.0000 exact exchange contribution

 Linear response parameters
   LEPSILON=     F    determine dielectric tensor
   LRPA    =     F    only Hartree local field effects (RPA)
   LNABLA  =     F    use nabla operator in PAW spheres
   LVEL    =     F    velocity operator in full k-point grid
   LINTERFAST=   F  fast interpolation
   KINTER  =     0    interpolate to denser k-point grid
   CSHIFT  =0.1000    complex shift for real part using Kramers Kronig
   OMEGAMAX=  -1.0    maximum frequency
   DEG_THRESHOLD= 0.2000000E-02 threshold for treating states as degnerate
   RTIME   =   -0.100 relaxation time in fs
  (WPLASMAI=    0.000 imaginary part of plasma frequency in eV, 0.658/RTIME)
   DFIELD  = 0.0000000 0.0000000 0.0000000 field for delta impulse in time
 
 Orbital magnetization related:
   ORBITALMAG=     F  switch on orbital magnetization
   LCHIMAG   =     F  perturbation theory with respect to B field
   DQ        =  0.001000  dq finite difference perturbation B field
   LLRAUG    =     F  two centre corrections for induced B field



--------------------------------------------------------------------------------------------------------


 Static calculation
 charge density and potential remain constant during run
 spin polarized calculation
 RMM-DIIS sequential band-by-band and
  variant of blocked Davidson during initial phase
 perform sub-space diagonalisation
    before iterative eigenvector-optimisation
 no mixing
 using additional bands          100
 real space projection scheme for non local part
 use partial core corrections
 calculate Harris-corrections to forces 
   (improved forces if not selfconsistent)
 use gradient corrections 
 WARNING: stress and forces are not correct
  (second derivative of E(xc) not defined)
 use of overlap-Matrix (Vanderbilt PP)
 Fermi weights with tetrahedron method with Bloechl corrections


--------------------------------------------------------------------------------------------------------


  energy-cutoff  :      520.00
  volume of cell :     1815.73
      direct lattice vectors                 reciprocal lattice vectors
     9.967380000  0.000000000  0.000000000     0.100327268  0.057923975  0.000000000
    -4.983690000  8.632004290  0.000000000     0.000000000  0.115847950  0.000000000
     0.000000000  0.000000000 21.103750000     0.000000000  0.000000000  0.047384943

  length of vectors
     9.967380000  9.967380001 21.103750000     0.115847950  0.115847950  0.047384943


 
 old parameters found on file WAVECAR:
  energy-cutoff  :      520.00
  volume of cell :     1815.73
      direct lattice vectors                 reciprocal lattice vectors
     9.967380000  0.000000000  0.000000000     0.100327268  0.057923975  0.000000000
    -4.983690000  8.632004290  0.000000000     0.000000000  0.115847950  0.000000000
     0.000000000  0.000000000 21.103750000     0.000000000  0.000000000  0.047384943

  length of vectors

 
 k-points in units of 2pi/SCALE and weight: read from INCAR                         
   0.00000000  0.00000000  0.00000000       0.031
   0.02508182  0.01448099  0.00000000       0.062
   0.05016363  0.02896199  0.00000000       0.031
   0.00000000  0.02896199  0.00000000       0.062
   0.02508182  0.04344298  0.00000000       0.062
   0.05016363  0.05792397  0.00000000       0.062
  -0.02508182  0.01448099  0.00000000       0.062
   0.00000000  0.05792397  0.00000000       0.031
   0.02508182  0.07240497  0.00000000       0.062
   0.05016363  0.08688596  0.00000000       0.031
   0.00000000  0.00000000  0.02369247       0.031
   0.02508182  0.01448099  0.02369247       0.062
   0.05016363  0.02896199  0.02369247       0.031
   0.00000000  0.02896199  0.02369247       0.062
   0.02508182  0.04344298  0.02369247       0.062
   0.05016363  0.05792397  0.02369247       0.062
  -0.02508182  0.01448099  0.02369247       0.062
   0.00000000  0.05792397  0.02369247       0.031
   0.02508182  0.07240497  0.02369247       0.062
   0.05016363  0.08688596  0.02369247       0.031
 
 k-points in reciprocal lattice and weights: read from INCAR                         
   0.00000000  0.00000000  0.00000000       0.031
   0.25000000  0.00000000  0.00000000       0.062
   0.50000000  0.00000000  0.00000000       0.031
   0.00000000  0.25000000  0.00000000       0.062
   0.25000000  0.25000000  0.00000000       0.062
   0.50000000  0.25000000  0.00000000       0.062
  -0.25000000  0.25000000  0.00000000       0.062
   0.00000000  0.50000000  0.00000000       0.031
   0.25000000  0.50000000  0.00000000       0.062
   0.50000000  0.50000000  0.00000000       0.031
   0.00000000  0.00000000  0.50000000       0.031
   0.25000000  0.00000000  0.50000000       0.062
   0.50000000  0.00000000  0.50000000       0.031
   0.00000000  0.25000000  0.50000000       0.062
   0.25000000  0.25000000  0.50000000       0.062
   0.50000000  0.25000000  0.50000000       0.062
  -0.25000000  0.25000000  0.50000000       0.062
   0.00000000  0.50000000  0.50000000       0.031
   0.25000000  0.50000000  0.50000000       0.062
   0.50000000  0.50000000  0.50000000       0.031
 
 position of ions in fractional coordinates (direct lattice) 
   0.11283300  0.22566700  0.09477000
   0.11092482  0.22757355  0.38250136
   0.19616700  0.14233300  0.19117800
   0.02980593  0.05914509  0.28471391
   0.36283300  0.22566700  0.09477000
   0.36661655  0.22745473  0.38252654
   0.44616700  0.14233300  0.19117800
   0.27929155  0.05910384  0.28471731
   0.61283300  0.22566700  0.09477000
   0.61085361  0.22745237  0.38253542
   0.69616700  0.14233300  0.19117800
   0.52982641  0.05910194  0.28473294
   0.86283300  0.22566700  0.09477000
   0.86671765  0.22755920  0.38251066
   0.94616700  0.14233300  0.19117800
   0.77932387  0.05913939  0.28472720
   0.11283300  0.47566700  0.09477000
   0.11094396  0.47183049  0.38251567
   0.19616700  0.39233300  0.19117800
   0.02953141  0.30901187  0.28645662
   0.36283300  0.47566700  0.09477000
   0.36277200  0.47554750  0.37714213
   0.44616700  0.39233300  0.19117800
   0.27933184  0.30861538  0.28471016
   0.61283300  0.47566700  0.09477000
   0.61084262  0.47170806  0.38256243
   0.69616700  0.39233300  0.19117800
   0.52945895  0.30891242  0.28647107
   0.86283300  0.47566700  0.09477000
   0.86279672  0.47556828  0.37714388
   0.94616700  0.39233300  0.19117800
   0.77930660  0.30860657  0.28472030
   0.11283300  0.72566700  0.09477000
   0.11087517  0.72755880  0.38250166
   0.19616700  0.64233300  0.19117800
   0.02980650  0.55913896  0.28471717
   0.36283300  0.72566700  0.09477000
   0.36665804  0.72754397  0.38253097
   0.44616700  0.64233300  0.19117800
   0.27934363  0.55915500  0.28472150
   0.61283300  0.72566700  0.09477000
   0.61083800  0.72745936  0.38254628
   0.69616700  0.64233300  0.19117800
   0.52982286  0.55910391  0.28473328
   0.86283300  0.72566700  0.09477000
   0.86660831  0.72749218  0.38251312
   0.94616700  0.64233300  0.19117800
   0.77927720  0.55909274  0.28472939
   0.11283300  0.97566700  0.09477000
   0.11086335  0.97178854  0.38251636
   0.19616700  0.89233300  0.19117800
   0.02946358  0.80897569  0.28646295
   0.36283300  0.97566700  0.09477000
   0.36275968  0.97554825  0.37713827
   0.44616700  0.89233300  0.19117800
   0.27930506  0.80861333  0.28471008
   0.61283300  0.97566700  0.09477000
   0.61091785  0.97176753  0.38255727
   0.69616700  0.89233300  0.19117800
   0.52948713  0.80896195  0.28647409
   0.86283300  0.97566700  0.09477000
   0.86280603  0.97557442  0.37714103
   0.94616700  0.89233300  0.19117800
   0.77928077  0.80860209  0.28472222
   0.19611409  0.14231243  0.43475347
   0.69614094  0.64224730  0.43470615
   0.19612898  0.64232866  0.43473714
   0.69626324  0.14234524  0.43471009
 
 position of ions in cartesian coordinates  (Angst):
  -0.00000498  1.94795851  2.00000239
  -0.02852616  1.96441588  8.07221297
   1.24592748  1.22861907  4.03457272
   0.00232626  0.51054066  6.00853123
   2.49184002  1.94795851  2.00000239
   2.52064257  1.96339019  8.07274446
   3.73777248  1.22861907  4.03457272
   2.48924981  0.51018459  6.00860297
   4.98368502  1.94795851  2.00000239
   4.95505797  1.96336980  8.07293192
   6.22961748  1.22861907  4.03457272
   4.98643538  0.51016818  6.00893269
   7.47553002  1.94795851  2.00000239
   7.50481970  1.96429195  8.07240926
   8.72146248  1.22861907  4.03457272
   7.47308476  0.51049144  6.00881168
  -1.24592748  4.10595958  2.00000239
  -1.24563628  4.07284284  8.07251501
   0.00000498  3.38662014  4.03457272
  -1.24566856  2.66739176  6.04530897
   1.24591752  4.10595958  2.00000239
   1.24590507  4.10492805  7.95911321
   2.49184998  3.38662014  4.03457272
   1.24616319  2.66396929  6.00845213
   3.73776252  4.10595958  2.00000239
   3.73765380  4.07178597  8.07350193
   4.98369498  3.38662014  4.03457272
   3.73779476  2.66653334  6.04561379
   6.22960752  4.10595958  2.00000239
   6.22973793  4.10510741  7.95915021
   7.47553998  3.38662014  4.03457272
   6.22964558  2.66389322  6.00866609
  -2.49184998  6.26396066  2.00000239
  -2.52079253  6.28029071  8.07221934
  -1.24591752  5.54462121  4.03457272
  -2.48948250  4.82648990  6.00859997
  -0.00000498  6.26396066  2.00000239
   0.02876640  6.28016265  8.07283788
   1.24592748  5.54462121  4.03457272
  -0.00233105  4.82662837  6.00869126
   2.49184002  6.26396066  2.00000239
   2.46302248  6.27943234  8.07316110
   3.73777248  5.54462121  4.03457272
   2.49454519  4.82618734  6.00893992
   4.98368502  6.26396066  2.00000239
   5.01221886  6.27971561  8.07246126
   6.22961748  5.54462121  4.03457272
   4.98100704  4.82609096  6.00885786
  -3.73777248  8.42196173  2.00000239
  -3.73807572  8.38848281  8.07252971
  -2.49184002  7.70262228  4.03457272
  -3.73800934  6.98308165  6.04544253
  -1.24592748  8.42196173  2.00000239
  -1.24606650  8.42093668  7.95903175
   0.00000498  7.70262228  4.03457272
  -1.24593854  6.97995375  6.00845028
   1.24591752  8.42196173  2.00000239
   1.24626228  8.38830149  8.07339301
   2.49184998  7.70262228  4.03457272
   1.24598382  6.98296301  6.04567754
   3.73776252  8.42196173  2.00000239
   3.73795514  8.42116254  7.95909006
   4.98369498  7.70262228  4.03457272
   3.73756539  6.97985669  6.00870661
   1.24550268  1.22844148  9.17492859
   3.73793987  5.54388145  9.17392986
  -1.24627484  5.54458373  9.17458402
   6.23051576  1.22872468  9.17401304
 


--------------------------------------------------------------------------------------------------------


 k-point  1 :   0.0000 0.0000 0.0000  plane waves:   48949
 k-point  2 :   0.2500 0.0000 0.0000  plane waves:   48934
 k-point  3 :   0.5000 0.0000 0.0000  plane waves:   48846
 k-point  4 :   0.0000 0.2500 0.0000  plane waves:   48934
 k-point  5 :   0.2500 0.2500 0.0000  plane waves:   48825
 k-point  6 :   0.5000 0.2500 0.0000  plane waves:   48825
 k-point  7 :  -0.2500 0.2500 0.0000  plane waves:   48934
 k-point  8 :   0.0000 0.5000 0.0000  plane waves:   48846
 k-point  9 :   0.2500 0.5000 0.0000  plane waves:   48825
 k-point 10 :   0.5000 0.5000 0.0000  plane waves:   48846
 k-point 11 :   0.0000 0.0000 0.5000  plane waves:   48954
 k-point 12 :   0.2500 0.0000 0.5000  plane waves:   48916
 k-point 13 :   0.5000 0.0000 0.5000  plane waves:   48860
 k-point 14 :   0.0000 0.2500 0.5000  plane waves:   48916
 k-point 15 :   0.2500 0.2500 0.5000  plane waves:   48882
 k-point 16 :   0.5000 0.2500 0.5000  plane waves:   48882
 k-point 17 :  -0.2500 0.2500 0.5000  plane waves:   48916
 k-point 18 :   0.0000 0.5000 0.5000  plane waves:   48860
 k-point 19 :   0.2500 0.5000 0.5000  plane waves:   48882
 k-point 20 :   0.5000 0.5000 0.5000  plane waves:   48860

 maximum and minimum number of plane-waves per node :      2064     1992

 maximum number of plane-waves:     48954
 maximum index in each direction: 
   IXMAX=   18   IYMAX=   18   IZMAX=   39
   IXMIN=  -19   IYMIN=  -19   IZMIN=  -39


 real space projection operators:
  total allocation   :      63052.69 KBytes
  max/ min on nodes  :       3200.42       2316.36


 parallel 3D FFT for wavefunctions:
    minimum data exchange during FFTs selected (reduces bandwidth)
 parallel 3D FFT for charge:
    minimum data exchange during FFTs selected (reduces bandwidth)


 total amount of memory used by VASP MPI-rank0   259519. kBytes
=======================================================================

   base      :      30000. kBytes
   nonlr-proj:      12204. kBytes
   fftplans  :       6402. kBytes
   grid      :      16455. kBytes
   one-center:         93. kBytes
   wavefun   :     194365. kBytes
 
     INWAV:  cpu time   42.7315: real time   43.0765
 initial charge density was supplied:
 number of electron     664.0000031 magnetization      43.1269641
 keeping initial charge density in first step


--------------------------------------------------------------------------------------------------------


 Maximum index for non-local projection operator          709
 Maximum index for augmentation-charges         1178 (set IRDMAX)


--------------------------------------------------------------------------------------------------------


 First call to EWALD:  gamma=   0.145
 Maximum number of real-space cells 4x 4x 2
 Maximum number of reciprocal cells 2x 2x 4

    FEWALD:  cpu time    0.0042: real time    0.0042


--------------------------------------- Iteration      1(   1)  ---------------------------------------


    POTLOK:  cpu time    0.4095: real time    0.4327
    SETDIJ:  cpu time    0.0236: real time    0.0236
     EDDAV:  cpu time  176.7445: real time  176.8731
 BZINTS: Fermi energy:  0.516039;664.000000 electrons
         Band energy:***********;  BLOECHL correction: -0.051586
       DOS:  cpu time    0.2100: real time    0.2100
    --------------------------------------------
      LOOP:  cpu time  177.3876: real time  177.5395

 eigenvalue-minimisations  : 38889
 total energy-change (2. order) :-0.3410684E+03  (-0.2261354E+03)
 number of electron     664.0000031 magnetization      43.1269641
 augmentation part      664.0000031 magnetization      43.1269641

 DIPCOR: dipole corrections for dipol
 direction  3 min pos   236,
 dipolmoment           0.000000      0.000000      0.348343 electrons x Angstroem
 Tr[quadrupol]    -10848.408702

 energy correction for charged system         0.000000 eV
 dipol+quadrupol energy correction           -0.006047 eV
 added-field ion interaction         -5.256156 eV  (added to PSCEN)


 Free energy of the ion-electron system (eV)
  ---------------------------------------------------
  alpha Z        PSCENC =      1222.21973388
  Ewald energy   TEWEN  =    247891.88410989
  -Hartree energ DENC   =   -316534.61757360
  -exchange      EXHF   =         0.00000000
  -V(xc)+E(xc)   XCENC  =      2070.06538316
  PAW double counting   =     74319.50707954   -78714.32949446
  entropy T*S    EENTRO =         0.00000000
  eigenvalues    EBANDS =     -1296.16842954
  atomic energy  EATOM  =     70700.37078785
  Solvation  Ediel_sol  =         0.00000000
  ---------------------------------------------------
  free energy    TOTEN  =      -341.06840328 eV

  energy without entropy =     -341.06840328  energy(sigma->0) =     -341.06840328


--------------------------------------------------------------------------------------------------------




--------------------------------------- Iteration      1(   2)  ---------------------------------------


    EDDIAG:  cpu time   24.0398: real time   24.0632
  RMM-DIIS:  cpu time   89.7930: real time   89.8500
    ORTHCH:  cpu time    6.9370: real time    6.9395
 BZINTS: Fermi energy:  0.486673;664.000000 electrons
         Band energy:***********;  BLOECHL correction: -0.069562
       DOS:  cpu time    0.2598: real time    0.2598
    --------------------------------------------
      LOOP:  cpu time  121.0295: real time  121.1124

 eigenvalue-minimisations  : 37767
 total energy-change (2. order) :-0.1727549E+02  (-0.1722052E+02)
 number of electron     664.0000031 magnetization      43.1269641
 augmentation part      664.0000031 magnetization      43.1269641

 DIPCOR: dipole corrections for dipol
 direction  3 min pos   236,
 dipolmoment           0.000000      0.000000      0.348343 electrons x Angstroem
 Tr[quadrupol]    -10848.408702

 energy correction for charged system         0.000000 eV
 dipol+quadrupol energy correction           -0.006047 eV
 added-field ion interaction         -5.256156 eV  (added to PSCEN)


 Free energy of the ion-electron system (eV)
  ---------------------------------------------------
  alpha Z        PSCENC =      1222.21973388
  Ewald energy   TEWEN  =    247891.88410989
  -Hartree energ DENC   =   -316534.61757360
  -exchange      EXHF   =         0.00000000
  -V(xc)+E(xc)   XCENC  =      2070.06538316
  PAW double counting   =     74319.50707954   -78714.32949446
  entropy T*S    EENTRO =         0.00000000
  eigenvalues    EBANDS =     -1313.44391610
  atomic energy  EATOM  =     70700.37078785
  Solvation  Ediel_sol  =         0.00000000
  ---------------------------------------------------
  free energy    TOTEN  =      -358.34388984 eV

  energy without entropy =     -358.34388984  energy(sigma->0) =     -358.34388984


--------------------------------------------------------------------------------------------------------




--------------------------------------- Iteration      1(   3)  ---------------------------------------


    EDDIAG:  cpu time   24.0213: real time   24.0441
  RMM-DIIS:  cpu time   91.2752: real time   91.3331
    ORTHCH:  cpu time    6.9323: real time    6.9347
 BZINTS: Fermi energy:  0.486137;664.000000 electrons
         Band energy:***********;  BLOECHL correction: -0.054332
       DOS:  cpu time    0.2549: real time    0.2549
    --------------------------------------------
      LOOP:  cpu time  122.4836: real time  122.5667

 eigenvalue-minimisations  : 38539
 total energy-change (2. order) :-0.1915430E+00  (-0.5732386E+00)
 number of electron     664.0000031 magnetization      43.1269641
 augmentation part      664.0000031 magnetization      43.1269641

 DIPCOR: dipole corrections for dipol
 direction  3 min pos   236,
 dipolmoment           0.000000      0.000000      0.348343 electrons x Angstroem
 Tr[quadrupol]    -10848.408702

 energy correction for charged system         0.000000 eV
 dipol+quadrupol energy correction           -0.006047 eV
 added-field ion interaction         -5.256156 eV  (added to PSCEN)


 Free energy of the ion-electron system (eV)
  ---------------------------------------------------
  alpha Z        PSCENC =      1222.21973388
  Ewald energy   TEWEN  =    247891.88410989
  -Hartree energ DENC   =   -316534.61757360
  -exchange      EXHF   =         0.00000000
  -V(xc)+E(xc)   XCENC  =      2070.06538316
  PAW double counting   =     74319.50707954   -78714.32949446
  entropy T*S    EENTRO =         0.00000000
  eigenvalues    EBANDS =     -1313.63545908
  atomic energy  EATOM  =     70700.37078785
  Solvation  Ediel_sol  =         0.00000000
  ---------------------------------------------------
  free energy    TOTEN  =      -358.53543282 eV

  energy without entropy =     -358.53543282  energy(sigma->0) =     -358.53543282


--------------------------------------------------------------------------------------------------------




--------------------------------------- Iteration      1(   4)  ---------------------------------------


    EDDIAG:  cpu time   24.0125: real time   24.0378
  RMM-DIIS:  cpu time   99.8098: real time   99.8693
    ORTHCH:  cpu time    6.9516: real time    6.9545
 BZINTS: Fermi energy:  0.486110;664.000000 electrons
         Band energy:***********;  BLOECHL correction: -0.054354
       DOS:  cpu time    0.2152: real time    0.2153
    --------------------------------------------
      LOOP:  cpu time  130.9892: real time  131.0768

 eigenvalue-minimisations  : 42260
 total energy-change (2. order) :-0.4357052E-01  (-0.4852020E-01)
 number of electron     664.0000031 magnetization      43.1269641
 augmentation part      664.0000031 magnetization      43.1269641

 DIPCOR: dipole corrections for dipol
 direction  3 min pos   236,
 dipolmoment           0.000000      0.000000      0.348343 electrons x Angstroem
 Tr[quadrupol]    -10848.408702

 energy correction for charged system         0.000000 eV
 dipol+quadrupol energy correction           -0.006047 eV
 added-field ion interaction         -5.256156 eV  (added to PSCEN)


 Free energy of the ion-electron system (eV)
  ---------------------------------------------------
  alpha Z        PSCENC =      1222.21973388
  Ewald energy   TEWEN  =    247891.88410989
  -Hartree energ DENC   =   -316534.61757360
  -exchange      EXHF   =         0.00000000
  -V(xc)+E(xc)   XCENC  =      2070.06538316
  PAW double counting   =     74319.50707954   -78714.32949446
  entropy T*S    EENTRO =         0.00000000
  eigenvalues    EBANDS =     -1313.67902960
  atomic energy  EATOM  =     70700.37078785
  Solvation  Ediel_sol  =         0.00000000
  ---------------------------------------------------
  free energy    TOTEN  =      -358.57900334 eV

  energy without entropy =     -358.57900334  energy(sigma->0) =     -358.57900334


--------------------------------------------------------------------------------------------------------




--------------------------------------- Iteration      1(   5)  ---------------------------------------


    EDDIAG:  cpu time   24.0399: real time   24.0689
  RMM-DIIS:  cpu time  110.3640: real time  110.4412
    ORTHCH:  cpu time    6.9668: real time    6.9686
 BZINTS: Fermi energy:  0.486107;664.000000 electrons
         Band energy:***********;  BLOECHL correction: -0.054355
       DOS:  cpu time    0.2460: real time    0.2460
    --------------------------------------------
      LOOP:  cpu time  141.6166: real time  141.7247

 eigenvalue-minimisations  : 47042
 total energy-change (2. order) :-0.4337779E-02  (-0.6063205E-02)
 number of electron     664.0000031 magnetization      43.1269641
 augmentation part      664.0000031 magnetization      43.1269641

 DIPCOR: dipole corrections for dipol
 direction  3 min pos   236,
 dipolmoment           0.000000      0.000000      0.348343 electrons x Angstroem
 Tr[quadrupol]    -10848.408702

 energy correction for charged system         0.000000 eV
 dipol+quadrupol energy correction           -0.006047 eV
 added-field ion interaction         -5.256156 eV  (added to PSCEN)


 Free energy of the ion-electron system (eV)
  ---------------------------------------------------
  alpha Z        PSCENC =      1222.21973388
  Ewald energy   TEWEN  =    247891.88410989
  -Hartree energ DENC   =   -316534.61757360
  -exchange      EXHF   =         0.00000000
  -V(xc)+E(xc)   XCENC  =      2070.06538316
  PAW double counting   =     74319.50707954   -78714.32949446
  entropy T*S    EENTRO =         0.00000000
  eigenvalues    EBANDS =     -1313.68336738
  atomic energy  EATOM  =     70700.37078785
  Solvation  Ediel_sol  =         0.00000000
  ---------------------------------------------------
  free energy    TOTEN  =      -358.58334112 eV

  energy without entropy =     -358.58334112  energy(sigma->0) =     -358.58334112


--------------------------------------------------------------------------------------------------------




--------------------------------------- Iteration      1(   6)  ---------------------------------------


    EDDIAG:  cpu time   23.9964: real time   24.0226
  RMM-DIIS:  cpu time  116.1051: real time  116.1884
    ORTHCH:  cpu time    6.9475: real time    6.9504
 BZINTS: Fermi energy:  0.486107;664.000000 electrons
         Band energy:***********;  BLOECHL correction: -0.054356
       DOS:  cpu time    0.2401: real time    0.2402
    --------------------------------------------
      LOOP:  cpu time  147.2891: real time  147.4015

 eigenvalue-minimisations  : 49290
 total energy-change (2. order) :-0.3758614E-03  (-0.6279421E-03)
 number of electron     664.0000031 magnetization      43.1269641
 augmentation part      664.0000031 magnetization      43.1269641

 DIPCOR: dipole corrections for dipol
 direction  3 min pos   236,
 dipolmoment           0.000000      0.000000      0.348343 electrons x Angstroem
 Tr[quadrupol]    -10848.408702

 energy correction for charged system         0.000000 eV
 dipol+quadrupol energy correction           -0.006047 eV
 added-field ion interaction         -5.256156 eV  (added to PSCEN)


 Free energy of the ion-electron system (eV)
  ---------------------------------------------------
  alpha Z        PSCENC =      1222.21973388
  Ewald energy   TEWEN  =    247891.88410989
  -Hartree energ DENC   =   -316534.61757360
  -exchange      EXHF   =         0.00000000
  -V(xc)+E(xc)   XCENC  =      2070.06538316
  PAW double counting   =     74319.50707954   -78714.32949446
  entropy T*S    EENTRO =         0.00000000
  eigenvalues    EBANDS =     -1313.68374324
  atomic energy  EATOM  =     70700.37078785
  Solvation  Ediel_sol  =         0.00000000
  ---------------------------------------------------
  free energy    TOTEN  =      -358.58371698 eV

  energy without entropy =     -358.58371698  energy(sigma->0) =     -358.58371698


--------------------------------------------------------------------------------------------------------




--------------------------------------- Iteration      1(   7)  ---------------------------------------


    EDDIAG:  cpu time   24.0387: real time   24.0658
  RMM-DIIS:  cpu time  111.7635: real time  111.8307
    ORTHCH:  cpu time    6.9217: real time    6.9283
 BZINTS: Fermi energy:  0.486107;664.000000 electrons
         Band energy:***********;  BLOECHL correction: -0.054356
       DOS:  cpu time    0.2279: real time    0.2280
    --------------------------------------------
      LOOP:  cpu time  142.9517: real time  143.0527

 eigenvalue-minimisations  : 47429
 total energy-change (2. order) :-0.2084044E-04  (-0.8497539E-04)
 number of electron     664.0000031 magnetization      43.1269641
 augmentation part      664.0000031 magnetization      43.1269641

 DIPCOR: dipole corrections for dipol
 direction  3 min pos   236,
 dipolmoment           0.000000      0.000000      0.348343 electrons x Angstroem
 Tr[quadrupol]    -10848.408702

 energy correction for charged system         0.000000 eV
 dipol+quadrupol energy correction           -0.006047 eV
 added-field ion interaction         -5.256156 eV  (added to PSCEN)


 Free energy of the ion-electron system (eV)
  ---------------------------------------------------
  alpha Z        PSCENC =      1222.21973388
  Ewald energy   TEWEN  =    247891.88410989
  -Hartree energ DENC   =   -316534.61757360
  -exchange      EXHF   =         0.00000000
  -V(xc)+E(xc)   XCENC  =      2070.06538316
  PAW double counting   =     74319.50707954   -78714.32949446
  entropy T*S    EENTRO =         0.00000000
  eigenvalues    EBANDS =     -1313.68376408
  atomic energy  EATOM  =     70700.37078785
  Solvation  Ediel_sol  =         0.00000000
  ---------------------------------------------------
  free energy    TOTEN  =      -358.58373782 eV

  energy without entropy =     -358.58373782  energy(sigma->0) =     -358.58373782


--------------------------------------------------------------------------------------------------------




--------------------------------------- Iteration      1(   8)  ---------------------------------------


    EDDIAG:  cpu time   24.0084: real time   24.0270
  RMM-DIIS:  cpu time   78.7420: real time   78.7931
    ORTHCH:  cpu time    6.9304: real time    6.9321
 BZINTS: Fermi energy:  0.486107;664.000000 electrons
         Band energy:***********;  BLOECHL correction: -0.054356
       DOS:  cpu time    0.2449: real time    0.2450
    --------------------------------------------
      LOOP:  cpu time  109.9257: real time  109.9972

 eigenvalue-minimisations  : 32259
 total energy-change (2. order) :-0.1416495E-04  (-0.2249609E-04)
 number of electron     664.0000031 magnetization      43.1269641
 augmentation part      664.0000031 magnetization      43.1269641

 DIPCOR: dipole corrections for dipol
 direction  3 min pos   236,
 dipolmoment           0.000000      0.000000      0.348343 electrons x Angstroem
 Tr[quadrupol]    -10848.408702

 energy correction for charged system         0.000000 eV
 dipol+quadrupol energy correction           -0.006047 eV
 added-field ion interaction         -5.256156 eV  (added to PSCEN)


 Free energy of the ion-electron system (eV)
  ---------------------------------------------------
  alpha Z        PSCENC =      1222.21973388
  Ewald energy   TEWEN  =    247891.88410989
  -Hartree energ DENC   =   -316534.61757360
  -exchange      EXHF   =         0.00000000
  -V(xc)+E(xc)   XCENC  =      2070.06538316
  PAW double counting   =     74319.50707954   -78714.32949446
  entropy T*S    EENTRO =         0.00000000
  eigenvalues    EBANDS =     -1313.68377825
  atomic energy  EATOM  =     70700.37078785
  Solvation  Ediel_sol  =         0.00000000
  ---------------------------------------------------
  free energy    TOTEN  =      -358.58375198 eV

  energy without entropy =     -358.58375198  energy(sigma->0) =     -358.58375198


--------------------------------------------------------------------------------------------------------




--------------------------------------- Iteration      1(   9)  ---------------------------------------


    EDDIAG:  cpu time   24.0278: real time   24.0512
  RMM-DIIS:  cpu time   60.2529: real time   60.2910
    ORTHCH:  cpu time    6.9297: real time    6.9327
 BZINTS: Fermi energy:  0.486107;664.000000 electrons
         Band energy:***********;  BLOECHL correction: -0.054356
       DOS:  cpu time    0.2561: real time    0.2562
    --------------------------------------------
      LOOP:  cpu time   91.4665: real time   91.5310

 eigenvalue-minimisations  : 23652
 total energy-change (2. order) :-0.7232302E-06  (-0.4050155E-05)
 number of electron     664.0000031 magnetization      43.1269641
 augmentation part      664.0000031 magnetization      43.1269641

 DIPCOR: dipole corrections for dipol
 direction  3 min pos   236,
 dipolmoment           0.000000      0.000000      0.348343 electrons x Angstroem
 Tr[quadrupol]    -10848.408702

 energy correction for charged system         0.000000 eV
 dipol+quadrupol energy correction           -0.006047 eV
 added-field ion interaction         -5.256156 eV  (added to PSCEN)


 Free energy of the ion-electron system (eV)
  ---------------------------------------------------
  alpha Z        PSCENC =      1222.21973388
  Ewald energy   TEWEN  =    247891.88410989
  -Hartree energ DENC   =   -316534.61757360
  -exchange      EXHF   =         0.00000000
  -V(xc)+E(xc)   XCENC  =      2070.06538316
  PAW double counting   =     74319.50707954   -78714.32949446
  entropy T*S    EENTRO =         0.00000000
  eigenvalues    EBANDS =     -1313.68377897
  atomic energy  EATOM  =     70700.37078785
  Solvation  Ediel_sol  =         0.00000000
  ---------------------------------------------------
  free energy    TOTEN  =      -358.58375271 eV

  energy without entropy =     -358.58375271  energy(sigma->0) =     -358.58375271


--------------------------------------------------------------------------------------------------------




--------------------------------------- Iteration      1(  10)  ---------------------------------------


    EDDIAG:  cpu time   23.9933: real time   24.0174
  RMM-DIIS:  cpu time   52.6819: real time   52.7127
    ORTHCH:  cpu time    6.9431: real time    6.9455
 BZINTS: Fermi energy:  0.486107;664.000000 electrons
         Band energy:***********;  BLOECHL correction: -0.054356
       DOS:  cpu time    0.2552: real time    0.2552
    --------------------------------------------
      LOOP:  cpu time   83.8735: real time   83.9308

 eigenvalue-minimisations  : 19762
 total energy-change (2. order) :-0.4859758E-06  (-0.1239495E-05)
 number of electron     664.0000031 magnetization      43.1269641
 augmentation part      664.0000031 magnetization      43.1269641

 DIPCOR: dipole corrections for dipol
 direction  3 min pos   236,
 dipolmoment           0.000000      0.000000      0.348343 electrons x Angstroem
 Tr[quadrupol]    -10848.408702

 energy correction for charged system         0.000000 eV
 dipol+quadrupol energy correction           -0.006047 eV
 added-field ion interaction         -5.256156 eV  (added to PSCEN)


 Free energy of the ion-electron system (eV)
  ---------------------------------------------------
  alpha Z        PSCENC =      1222.21973388
  Ewald energy   TEWEN  =    247891.88410989
  -Hartree energ DENC   =   -316534.61757360
  -exchange      EXHF   =         0.00000000
  -V(xc)+E(xc)   XCENC  =      2070.06538316
  PAW double counting   =     74319.50707954   -78714.32949446
  entropy T*S    EENTRO =         0.00000000
  eigenvalues    EBANDS =     -1313.68377945
  atomic energy  EATOM  =     70700.37078785
  Solvation  Ediel_sol  =         0.00000000
  ---------------------------------------------------
  free energy    TOTEN  =      -358.58375319 eV

  energy without entropy =     -358.58375319  energy(sigma->0) =     -358.58375319


--------------------------------------------------------------------------------------------------------




--------------------------------------- Iteration      1(  11)  ---------------------------------------


    EDDIAG:  cpu time   24.0222: real time   24.0465
  RMM-DIIS:  cpu time   50.7022: real time   50.7333
    ORTHCH:  cpu time    6.9401: real time    6.9426
 BZINTS: Fermi energy:  0.486107;664.000000 electrons
         Band energy:***********;  BLOECHL correction: -0.054356
       DOS:  cpu time    0.2555: real time    0.2555
    --------------------------------------------
      LOOP:  cpu time   81.9200: real time   81.9780

 eigenvalue-minimisations  : 18231
 total energy-change (2. order) :-0.4458707E-07  (-0.3552791E-06)
 number of electron     664.0000031 magnetization      43.1269641
 augmentation part      664.0000031 magnetization      43.1269641

 DIPCOR: dipole corrections for dipol
 direction  3 min pos   236,
 dipolmoment           0.000000      0.000000      0.348343 electrons x Angstroem
 Tr[quadrupol]    -10848.408702

 energy correction for charged system         0.000000 eV
 dipol+quadrupol energy correction           -0.006047 eV
 added-field ion interaction         -5.256156 eV  (added to PSCEN)


 Free energy of the ion-electron system (eV)
  ---------------------------------------------------
  alpha Z        PSCENC =      1222.21973388
  Ewald energy   TEWEN  =    247891.88410989
  -Hartree energ DENC   =   -316534.61757360
  -exchange      EXHF   =         0.00000000
  -V(xc)+E(xc)   XCENC  =      2070.06538316
  PAW double counting   =     74319.50707954   -78714.32949446
  entropy T*S    EENTRO =         0.00000000
  eigenvalues    EBANDS =     -1313.68377950
  atomic energy  EATOM  =     70700.37078785
  Solvation  Ediel_sol  =         0.00000000
  ---------------------------------------------------
  free energy    TOTEN  =      -358.58375324 eV

  energy without entropy =     -358.58375324  energy(sigma->0) =     -358.58375324


--------------------------------------------------------------------------------------------------------




 average (electrostatic) potential at core
  the test charge radii are     0.9791  0.7215
  (the norm of the test charge is              1.0000)
       1 -90.6379       2 -90.9640       3 -90.9552       4 -90.9498       5 -90.6333
       6 -90.9623       7 -90.9723       8 -90.9488       9 -90.6377      10 -90.9627
      11 -90.9547      12 -90.9490      13 -90.6336      14 -90.9635      15 -90.9734
      16 -90.9485      17 -90.6358      18 -90.9632      19 -90.9735      20 -90.8339
      21 -90.6793      22 -90.5920      23 -90.9724      24 -90.9478      25 -90.6366
      26 -90.9624      27 -90.9729      28 -90.8344      29 -90.6788      30 -90.5903
      31 -90.9727      32 -90.9467      33 -90.6378      34 -90.9625      35 -90.9550
      36 -90.9494      37 -90.6344      38 -90.9622      39 -90.9731      40 -90.9486
      41 -90.6393      42 -90.9621      43 -90.9555      44 -90.9486      45 -90.6348
      46 -90.9620      47 -90.9737      48 -90.9478      49 -90.6350      50 -90.9628
      51 -90.9731      52 -90.8343      53 -90.6781      54 -90.5913      55 -90.9716
      56 -90.9472      57 -90.6358      58 -90.9627      59 -90.9735      60 -90.8341
      61 -90.6776      62 -90.5908      63 -90.9730      64 -90.9465      65 -75.7717
      66 -75.7769      67 -75.7727      68 -75.7763
 
 
 
 E-fermi :   0.4861     XC(G=0):  -6.0335     alpha+bet : -6.4862


 spin component 1

 k-point     1 :       0.0000    0.0000    0.0000
  band No.  band energies     occupation 
      1     -18.5818      1.00000
      2     -18.5687      1.00000
      3     -18.5653      1.00000
      4     -18.5626      1.00000
      5      -8.0694      1.00000
      6      -6.6293      1.00000
      7      -6.2520      1.00000
      8      -6.2519      1.00000
      9      -6.2518      1.00000
     10      -6.1457      1.00000
     11      -6.1456      1.00000
     12      -6.1454      1.00000
     13      -5.4794      1.00000
     14      -5.4789      1.00000
     15      -5.4781      1.00000
     16      -5.2343      1.00000
     17      -5.1412      1.00000
     18      -5.1407      1.00000
     19      -5.0861      1.00000
     20      -5.0854      1.00000
     21      -5.0850      1.00000
     22      -4.9911      1.00000
     23      -4.9890      1.00000
     24      -4.9877      1.00000
     25      -4.6563      1.00000
     26      -4.5895      1.00000
     27      -4.5894      1.00000
     28      -4.5893      1.00000
     29      -4.4509      1.00000
     30      -4.4505      1.00000
     31      -4.4499      1.00000
     32      -4.2757      1.00000
     33      -4.1207      1.00000
     34      -4.1203      1.00000
     35      -4.1099      1.00000
     36      -4.0505      1.00000
     37      -4.0360      1.00000
     38      -4.0358      1.00000
     39      -3.7547      1.00000
     40      -3.7541      1.00000
     41      -3.7537      1.00000
     42      -3.7346      1.00000
     43      -3.7341      1.00000
     44      -3.7338      1.00000
     45      -3.6875      1.00000
     46      -3.6867      1.00000
     47      -3.6865      1.00000
     48      -3.6226      1.00000
     49      -3.5884      1.00000
     50      -3.5881      1.00000
     51      -3.5187      1.00000
     52      -3.5186      1.00000
     53      -3.5173      1.00000
     54      -3.4811      1.00000
     55      -3.4800      1.00000
     56      -3.4796      1.00000
     57      -3.4749      1.00000
     58      -3.4743      1.00000
     59      -3.4738      1.00000
     60      -3.4218      1.00000
     61      -3.4170      1.00000
     62      -3.4134      1.00000
     63      -3.3643      1.00000
     64      -3.3642      1.00000
     65      -3.3642      1.00000
     66      -3.3638      1.00000
     67      -3.3637      1.00000
     68      -3.3635      1.00000
     69      -3.3062      1.00000
     70      -3.3059      1.00000
     71      -3.3057      1.00000
     72      -3.2738      1.00000
     73      -3.2735      1.00000
     74      -3.1759      1.00000
     75      -3.1757      1.00000
     76      -3.1755      1.00000
     77      -3.0739      1.00000
     78      -3.0049      1.00000
     79      -3.0049      1.00000
     80      -3.0047      1.00000
     81      -2.9866      1.00000
     82      -2.9865      1.00000
     83      -2.9857      1.00000
     84      -2.9413      1.00000
     85      -2.9405      1.00000
     86      -2.9240      1.00000
     87      -2.9238      1.00000
     88      -2.9230      1.00000
     89      -2.9098      1.00000
     90      -2.9094      1.00000
     91      -2.9085      1.00000
     92      -2.8655      1.00000
     93      -2.8650      1.00000
     94      -2.8643      1.00000
     95      -2.8127      1.00000
     96      -2.8126      1.00000
     97      -2.8125      1.00000
     98      -2.6587      1.00000
     99      -2.6586      1.00000
    100      -2.6580      1.00000
    101      -2.5920      1.00000
    102      -2.5916      1.00000
    103      -2.5916      1.00000
    104      -2.5697      1.00000
    105      -2.5693      1.00000
    106      -2.5683      1.00000
    107      -2.5467      1.00000
    108      -2.5451      1.00000
    109      -2.5450      1.00000
    110      -2.5076      1.00000
    111      -2.5073      1.00000
    112      -2.5069      1.00000
    113      -2.4865      1.00000
    114      -2.4862      1.00000
    115      -2.4856      1.00000
    116      -2.4624      1.00000
    117      -2.4621      1.00000
    118      -2.4614      1.00000
    119      -2.4350      1.00000
    120      -2.4343      1.00000
    121      -2.4337      1.00000
    122      -2.3798      1.00000
    123      -2.2761      1.00000
    124      -2.2759      1.00000
    125      -2.2755      1.00000
    126      -2.2553      1.00000
    127      -2.2549      1.00000
    128      -2.2548      1.00000
    129      -2.2531      1.00000
    130      -2.2246      1.00000
    131      -2.2234      1.00000
    132      -2.2016      1.00000
    133      -2.2004      1.00000
    134      -2.2003      1.00000
    135      -2.1779      1.00000
    136      -2.1767      1.00000
    137      -2.1767      1.00000
    138      -2.0568      1.00000
    139      -2.0561      1.00000
    140      -2.0558      1.00000
    141      -2.0423      1.00000
    142      -2.0331      1.00000
    143      -2.0322      1.00000
    144      -2.0173      1.00000
    145      -2.0167      1.00000
    146      -2.0162      1.00000
    147      -2.0048      1.00000
    148      -1.9492      1.00000
    149      -1.9480      1.00000
    150      -1.9268      1.00000
    151      -1.9265      1.00000
    152      -1.9259      1.00000
    153      -1.9056      1.00000
    154      -1.9042      1.00000
    155      -1.8835      1.00000
    156      -1.8832      1.00000
    157      -1.8829      1.00000
    158      -1.8637      1.00000
    159      -1.8519      1.00000
    160      -1.8517      1.00000
    161      -1.8513      1.00000
    162      -1.8358      1.00000
    163      -1.8195      1.00000
    164      -1.8189      1.00000
    165      -1.7699      1.00000
    166      -1.7698      1.00000
    167      -1.7696      1.00000
    168      -1.7235      1.00000
    169      -1.7230      1.00000
    170      -1.7200      1.00000
    171      -1.7198      1.00000
    172      -1.7193      1.00000
    173      -1.6968      1.00000
    174      -1.6962      1.00000
    175      -1.6960      1.00000
    176      -1.6957      1.00000
    177      -1.6955      1.00000
    178      -1.6950      1.00000
    179      -1.6860      1.00000
    180      -1.6856      1.00000
    181      -1.6851      1.00000
    182      -1.6544      1.00000
    183      -1.6535      1.00000
    184      -1.6533      1.00000
    185      -1.6274      1.00000
    186      -1.6268      1.00000
    187      -1.6264      1.00000
    188      -1.6025      1.00000
    189      -1.5770      1.00000
    190      -1.5749      1.00000
    191      -1.5739      1.00000
    192      -1.5732      1.00000
    193      -1.5724      1.00000
    194      -1.5717      1.00000
    195      -1.5714      1.00000
    196      -1.5708      1.00000
    197      -1.5323      1.00000
    198      -1.5319      1.00000
    199      -1.5315      1.00000
    200      -1.4986      1.00000
    201      -1.4883      1.00000
    202      -1.4878      1.00000
    203      -1.4877      1.00000
    204      -1.4692      1.00000
    205      -1.4682      1.00000
    206      -1.4639      1.00000
    207      -1.4634      1.00000
    208      -1.4632      1.00000
    209      -1.4196      1.00000
    210      -1.4186      1.00000
    211      -1.4185      1.00000
    212      -1.2755      1.00000
    213      -1.2755      1.00000
    214      -1.2751      1.00000
    215      -1.2454      1.00000
    216      -1.2448      1.00000
    217      -1.2441      1.00000
    218      -1.2336      1.00000
    219      -1.2334      1.00000
    220      -1.2132      1.00000
    221      -1.2120      1.00000
    222      -1.2111      1.00000
    223      -1.2080      1.00000
    224      -1.1705      1.00000
    225      -1.1703      1.00000
    226      -1.1692      1.00000
    227      -1.1189      1.00000
    228      -1.1177      1.00000
    229      -1.1168      1.00000
    230      -1.0961      1.00000
    231      -1.0955      1.00000
    232      -1.0951      1.00000
    233      -1.0948      1.00000
    234      -1.0927      1.00000
    235      -1.0573      1.00000
    236      -1.0568      1.00000
    237      -1.0560      1.00000
    238      -1.0171      1.00000
    239      -1.0162      1.00000
    240      -1.0152      1.00000
    241      -0.9849      1.00000
    242      -0.9840      1.00000
    243      -0.9834      1.00000
    244      -0.9775      1.00000
    245      -0.9772      1.00000
    246      -0.9770      1.00000
    247      -0.9416      1.00000
    248      -0.9113      1.00000
    249      -0.9097      1.00000
    250      -0.8982      1.00000
    251      -0.8977      1.00000
    252      -0.8975      1.00000
    253      -0.8422      1.00000
    254      -0.8419      1.00000
    255      -0.8416      1.00000
    256      -0.8171      1.00000
    257      -0.8164      1.00000
    258      -0.8160      1.00000
    259      -0.8113      1.00000
    260      -0.8087      1.00000
    261      -0.8084      1.00000
    262      -0.7907      1.00000
    263      -0.7902      1.00000
    264      -0.7891      1.00000
    265      -0.7857      1.00000
    266      -0.7856      1.00000
    267      -0.7846      1.00000
    268      -0.7424      1.00000
    269      -0.7417      1.00000
    270      -0.7378      1.00000
    271      -0.7376      1.00000
    272      -0.7368      1.00000
    273      -0.7171      1.00000
    274      -0.7164      1.00000
    275      -0.7157      1.00000
    276      -0.6700      1.00000
    277      -0.6698      1.00000
    278      -0.6695      1.00000
    279      -0.6584      1.00000
    280      -0.6307      1.00000
    281      -0.6300      1.00000
    282      -0.6298      1.00000
    283      -0.6294      1.00000
    284      -0.6284      1.00000
    285      -0.6280      1.00000
    286      -0.5938      1.00000
    287      -0.5936      1.00000
    288      -0.5492      1.00000
    289      -0.5491      1.00000
    290      -0.5485      1.00000
    291      -0.5313      1.00000
    292      -0.5313      1.00000
    293      -0.5310      1.00000
    294      -0.4581      1.00000
    295      -0.4551      1.00000
    296      -0.4316      1.00000
    297      -0.4272      1.00000
    298      -0.4272      1.00000
    299      -0.4270      1.00000
    300      -0.3805      1.00000
    301      -0.3796      1.00000
    302      -0.3786      1.00000
    303      -0.3128      1.00000
    304      -0.3109      1.00000
    305      -0.3107      1.00000
    306      -0.3039      1.00000
    307      -0.3035      1.00000
    308      -0.2948      1.00000
    309      -0.2908      1.00000
    310      -0.2899      1.00000
    311      -0.2183      1.00000
    312      -0.2173      1.00000
    313      -0.2170      1.00000
    314      -0.2128      1.00000
    315      -0.2107      1.00000
    316      -0.1999      1.00000
    317      -0.1982      1.00000
    318      -0.1973      1.00000
    319      -0.1951      1.00000
    320      -0.1733      1.00000
    321      -0.1727      1.00000
    322      -0.1675      1.00000
    323      -0.1439      1.00000
    324      -0.1423      1.00000
    325      -0.1409      1.00000
    326      -0.1317      1.00000
    327      -0.1304      1.00000
    328      -0.1297      1.00000
    329      -0.0845      1.00000
    330      -0.0843      1.00000
    331      -0.0833      1.00000
    332      -0.0781      1.00000
    333      -0.0774      1.00000
    334      -0.0619      1.00000
    335      -0.0547      1.00000
    336      -0.0438      1.00000
    337      -0.0433      1.00000
    338       0.0110      1.00000
    339       0.0112      1.00000
    340       0.0119      1.00000
    341       0.0903      1.00000
    342       0.0910      1.00000
    343       0.1123      1.00000
    344       0.1668      1.00000
    345       0.1675      1.00000
    346       0.2300      1.00000
    347       0.2878      1.00000
    348       0.2884      1.00000
    349       0.2890      1.00000
    350       0.3332      1.00000
    351       0.3347      1.00000
    352       0.3352      0.95883
    353       0.7130      0.00000
    354       0.7133      0.00000
    355       0.7136      0.00000
    356       1.2350      0.00000
    357       1.2350      0.00000
    358       1.2352      0.00000
    359       1.2773      0.00000
    360       1.3217      0.00000
    361       1.3227      0.00000
    362       1.5350      0.00000
    363       1.5359      0.00000
    364       1.5371      0.00000
    365       1.5956      0.00000
    366       1.6551      0.00000
    367       1.6555      0.00000
    368       1.6561      0.00000
    369       2.3377      0.00000
[...]
   -.675E-01 0.604E-01 0.319E+04   -.136E-01 -.300E-02 -.319E+04   0.397E-03 0.505E-04 -.125E+01   0.803E-01 -.569E-01 -.282E+00
   0.123E+00 -.194E+00 -.292E+04   -.328E-01 0.757E-01 0.292E+04   0.639E-02 -.678E-02 0.299E+01   -.971E-01 0.126E+00 -.251E+01
   -.374E+01 0.231E+01 0.118E+04   0.362E+01 -.215E+01 -.118E+04   -.616E-01 0.373E-01 -.137E+00   0.195E+00 -.209E+00 -.198E+01
   0.683E-01 0.486E+01 -.860E+03   -.720E-01 -.460E+01 0.863E+03   0.130E-02 -.610E-01 0.400E+00   0.180E-02 -.183E+00 -.348E+01
   0.202E+00 -.171E+00 0.319E+04   -.218E+00 0.118E+00 -.319E+04   0.327E-01 -.203E-01 -.143E+01   -.285E-01 0.792E-01 -.507E+00
   0.976E+02 -.561E+02 -.291E+04   -.991E+02 0.570E+02 0.291E+04   0.169E+01 -.976E+00 0.466E+00   -.126E+00 0.336E-01 -.216E+01
   0.159E-01 -.150E-01 0.118E+04   0.859E-02 -.320E-01 -.118E+04   -.272E-02 -.176E-02 -.210E+00   -.218E-01 0.474E-01 -.209E+01
   -.410E+01 -.243E+01 -.860E+03   0.393E+01 0.228E+01 0.863E+03   0.633E-01 0.324E-01 0.395E+00   0.981E-01 0.105E+00 -.341E+01
   -.842E-01 -.209E+00 0.319E+04   0.226E+00 0.129E+00 -.319E+04   -.316E-01 -.169E-01 -.144E+01   -.970E-01 0.104E+00 -.489E+00
   -.975E+02 -.562E+02 -.291E+04   0.991E+02 0.571E+02 0.291E+04   -.169E+01 -.975E+00 0.454E+00   0.264E-01 0.318E-01 -.215E+01
   0.262E-01 -.450E+01 0.118E+04   0.799E-01 0.428E+01 -.118E+04   0.174E-02 -.669E-01 -.134E+00   -.106E+00 0.305E+00 -.187E+01
   0.424E+01 -.256E+01 -.860E+03   -.395E+01 0.236E+01 0.863E+03   -.512E-01 0.323E-01 0.385E+00   -.231E+00 0.155E+00 -.340E+01
   0.164E+00 -.244E+00 0.319E+04   -.209E+00 0.122E+00 -.319E+04   0.327E-01 -.194E-01 -.143E+01   -.460E-03 0.147E+00 -.540E+00
   0.975E+02 -.565E+02 -.291E+04   -.992E+02 0.574E+02 0.291E+04   0.170E+01 -.984E+00 0.448E+00   0.548E-01 0.228E-01 -.211E+01
   -.116E+00 -.172E-01 0.118E+04   -.367E-02 -.276E-01 -.118E+04   -.286E-02 -.502E-03 -.212E+00   0.122E+00 0.440E-01 -.200E+01
   -.435E+01 -.256E+01 -.860E+03   0.405E+01 0.237E+01 0.864E+03   0.585E-01 0.341E-01 0.395E+00   0.234E+00 0.156E+00 -.333E+01
   -.282E+00 -.199E+00 0.319E+04   0.201E+00 0.112E+00 -.319E+04   -.340E-01 -.192E-01 -.144E+01   0.126E+00 0.113E+00 -.521E+00
   -.977E+02 -.563E+02 -.291E+04   0.992E+02 0.572E+02 0.291E+04   -.170E+01 -.981E+00 0.454E+00   0.469E-01 -.196E-01 -.213E+01
   0.669E-01 -.438E+01 0.118E+04   -.788E-01 0.422E+01 -.118E+04   0.316E-02 -.688E-01 -.135E+00   0.804E-02 0.251E+00 -.193E+01
   0.420E+01 -.244E+01 -.860E+03   -.401E+01 0.228E+01 0.863E+03   -.614E-01 0.344E-01 0.388E+00   -.115E+00 0.119E+00 -.331E+01
   -.183E-01 0.203E+00 0.319E+04   -.273E-02 -.252E+00 -.319E+04   -.242E-02 0.392E-01 -.145E+01   0.232E-01 -.424E-02 -.480E+00
   0.997E-02 0.113E+03 -.291E+04   -.337E-01 -.114E+03 0.291E+04   -.932E-02 0.196E+01 0.446E+00   0.332E-01 -.194E+00 -.210E+01
   0.379E+01 0.216E+01 0.118E+04   -.368E+01 -.214E+01 -.118E+04   0.587E-01 0.325E-01 -.138E+00   -.176E+00 -.632E-01 -.198E+01
   0.945E-01 0.158E+00 -.886E+03   -.801E-01 -.102E+00 0.891E+03   0.237E-02 0.687E-02 -.120E+01   -.167E-01 -.643E-01 -.326E+01
   0.297E-01 -.345E-01 0.319E+04   0.145E-01 0.624E-02 -.319E+04   0.173E-02 0.264E-03 -.125E+01   -.446E-01 0.288E-01 -.245E+00
   -.234E-01 -.689E-01 -.292E+04   0.884E-01 0.127E+00 0.292E+04   0.592E-02 -.817E-02 0.297E+01   -.713E-01 -.496E-01 -.247E+01
   -.382E+01 0.210E+01 0.118E+04   0.375E+01 -.209E+01 -.118E+04   -.594E-01 0.338E-01 -.136E+00   0.144E+00 -.530E-01 -.197E+01
   -.513E-01 0.487E+01 -.860E+03   0.662E-01 -.462E+01 0.863E+03   0.151E-02 -.683E-01 0.407E+00   -.167E-01 -.175E+00 -.345E+01
   0.619E-02 0.993E-01 0.319E+04   0.260E-02 -.245E+00 -.319E+04   -.127E-02 0.377E-01 -.145E+01   -.809E-02 0.925E-01 -.465E+00
   -.267E-01 0.113E+03 -.291E+04   0.265E-02 -.115E+03 0.291E+04   -.287E-02 0.196E+01 0.449E+00   0.266E-01 -.131E+00 -.215E+01
   0.384E+01 0.207E+01 0.118E+04   -.371E+01 -.214E+01 -.118E+04   0.590E-01 0.324E-01 -.136E+00   -.210E+00 0.246E-01 -.190E+01
   -.934E-01 -.830E-01 -.887E+03   0.919E-01 0.466E-01 0.891E+03   -.288E-02 0.284E-02 -.121E+01   0.500E-02 0.321E-01 -.329E+01
   -.178E-01 -.113E+00 0.319E+04   -.135E-01 -.114E-01 -.319E+04   0.946E-03 0.304E-03 -.125E+01   0.298E-01 0.124E+00 -.298E+00
   0.579E-01 0.109E+00 -.292E+04   -.702E-01 0.428E-01 0.292E+04   0.429E-02 -.572E-02 0.299E+01   0.800E-02 -.144E+00 -.249E+01
   -.380E+01 0.224E+01 0.118E+04   0.362E+01 -.219E+01 -.118E+04   -.607E-01 0.370E-01 -.137E+00   0.247E+00 -.959E-01 -.199E+01
   0.235E-01 0.490E+01 -.860E+03   -.497E-01 -.462E+01 0.863E+03   0.314E-02 -.652E-01 0.403E+00   0.229E-01 -.207E+00 -.334E+01
   0.505E-01 0.931E-01 -.231E+04   -.964E-01 -.528E-01 0.234E+04   0.110E-01 -.101E-02 -.283E+02   0.372E-01 -.409E-01 0.221E+00
   -.168E+00 -.122E+00 -.231E+04   0.137E+00 0.104E+00 0.234E+04   -.811E-02 -.987E-02 -.283E+02   0.397E-01 0.284E-01 0.122E+00
   0.158E+00 -.707E-01 -.231E+04   -.139E+00 0.237E-01 0.234E+04   0.918E-02 -.212E-02 -.283E+02   -.281E-01 0.514E-01 0.176E+00
   -.780E-01 -.104E+00 -.231E+04   0.104E+00 0.110E+00 0.234E+04   -.952E-02 -.129E-01 -.283E+02   -.181E-01 0.530E-02 0.226E+00
 -----------------------------------------------------------------------------------------------
   0.942E-02 -.887E-02 0.249E+03   0.663E-12 -.246E-11 -.637E-11   0.448E-01 -.507E-01 -.121E+03   -.576E-01 0.572E-01 -.128E+03
 
 
 POSITION                                       TOTAL-FORCE (eV/Angst)
 -----------------------------------------------------------------------------------
     -0.00000      1.94796      2.00000        -0.011485      0.007498      0.244857
     -0.02853      1.96442      8.07221         0.062464     -0.038901      0.023822
      1.24593      1.22862      4.03457        -0.000146     -0.000214     -0.258425
      0.00233      0.51054      6.00853        -0.005963     -0.003456      0.019875
      2.49184      1.94796      2.00000         0.012465      0.008084      0.248792
      2.52064      1.96339      8.07274        -0.066148     -0.035561      0.021901
      3.73777      1.22862      4.03457         0.000978      0.016572     -0.249890
      2.48925      0.51018      6.00860         0.007131     -0.003041      0.021084
      4.98369      1.94796      2.00000        -0.012547      0.006887      0.244534
      4.95506      1.96337      8.07293         0.060292     -0.032551      0.019913
      6.22962      1.22862      4.03457        -0.000599     -0.000871     -0.259368
      4.98644      0.51017      6.00893        -0.006060     -0.002324      0.019086
      7.47553      1.94796      2.00000         0.012486      0.007453      0.249590
      7.50482      1.96429      8.07241        -0.060171     -0.034458      0.019953
      8.72146      1.22862      4.03457         0.000012      0.016735     -0.250565
      7.47308      0.51049      6.00881         0.005824     -0.003123      0.019971
     -1.24593      4.10596      2.00000         0.000640     -0.013823      0.247125
     -1.24564      4.07284      8.07252        -0.001867      0.072528      0.023818
      0.00000      3.38662      4.03457        -0.013065     -0.007873     -0.251761
     -1.24567      2.66739      6.04531         0.000797     -0.002149      0.016426
      1.24592      4.10596      2.00000         0.000993      0.001632      0.124901
      1.24591      4.10493      7.95911        -0.000775      0.000581      0.084913
      2.49185      3.38662      4.03457         0.014696     -0.007616     -0.250795
      1.24616      2.66397      6.00845        -0.001461      0.008906      0.021239
      3.73776      4.10596      2.00000        -0.000981     -0.013514      0.246326
      3.73765      4.07179      8.07350        -0.000072      0.068265      0.018441
      4.98369      3.38662      4.03457        -0.015342     -0.009101     -0.250576
      3.73779      2.66653      6.04561        -0.000724      0.000882      0.017859
      6.22961      4.10596      2.00000        -0.000413      0.000615      0.125682
      6.22974      4.10511      7.95915         0.000002      0.000778      0.082953
      7.47554      3.38662      4.03457         0.014600     -0.008797     -0.251044
      6.22965      2.66389      6.00867        -0.000638      0.007540      0.019468
     -2.49185      6.26396      2.00000        -0.011848      0.006342      0.244690
     -2.52079      6.28029      8.07222         0.065667     -0.039591      0.022335
     -1.24592      5.54462      4.03457         0.000012     -0.001257     -0.258713
     -2.48948      4.82649      6.00860        -0.006517     -0.004017      0.019335
     -0.00000      6.26396      2.00000         0.013283      0.006486      0.247844
      0.02877      6.28016      8.07284        -0.064360     -0.038083      0.022225
      1.24593      5.54462      4.03457         0.001739      0.015468     -0.250399
     -0.00233      4.82663      6.00869         0.006481     -0.004773      0.021647
      2.49184      6.26396      2.00000        -0.011966      0.005532      0.243300
      2.46302      6.27943      8.07316         0.059182     -0.032130      0.017055
      3.73777      5.54462      4.03457        -0.000735     -0.001244     -0.258725
      2.49455      4.82619      6.00894        -0.007202     -0.003125      0.018739
      4.98369      6.26396      2.00000         0.011424      0.006391      0.247827
      5.01222      6.27972      8.07246        -0.058684     -0.033329      0.020147
      6.22962      5.54462      4.03457        -0.000640      0.016879     -0.249463
      4.98101      4.82609      6.00886         0.007954     -0.003444      0.018301
     -3.73777      8.42196      2.00000        -0.000236     -0.014610      0.247642
     -3.73808      8.38848      8.07253         0.000145      0.076290      0.027213
     -2.49184      7.70262      4.03457        -0.015650     -0.010287     -0.250375
     -3.73801      6.98308      6.04544         0.000054     -0.001172      0.014832
     -1.24593      8.42196      2.00000         0.001356      0.000799      0.125870
     -1.24607      8.42094      7.95903        -0.000376      0.000728      0.084558
      0.00000      7.70262      4.03457         0.015896     -0.009547     -0.250768
     -1.24594      6.97995      6.00845        -0.000240      0.009573      0.019557
      1.24592      8.42196      2.00000        -0.000513     -0.015424      0.246891
      1.24626      8.38830      8.07339        -0.000345      0.070664      0.021467
      2.49185      7.70262      4.03457        -0.015219     -0.010113     -0.250745
      1.24598      6.98296      6.04568         0.000701     -0.001356      0.017428
      3.73776      8.42196      2.00000        -0.000589      0.000073      0.126946
      3.73796      8.42116      7.95909         0.000104      0.001398      0.084400
      4.98369      7.70262      4.03457         0.014614     -0.010250     -0.249931
      3.73757      6.97986      6.00871        -0.000169      0.010123      0.017528
      1.24550      1.22844      9.17493         0.002287     -0.001568     -0.088432
      3.73794      5.54388      9.17393         0.000605      0.000662     -0.071529
     -1.24627      5.54458      9.17458         0.000103      0.002252     -0.084573
      6.23052      1.22872      9.17401        -0.001245     -0.001927     -0.074233
 -----------------------------------------------------------------------------------
    total drift:                               -0.003351     -0.002339      0.428154


--------------------------------------------------------------------------------------------------------



  FREE ENERGIE OF THE ION-ELECTRON SYSTEM (eV)
  ---------------------------------------------------
  free  energy   TOTEN  =      -376.57500966 eV

  energy  without entropy=     -376.57500966  energy(sigma->0) =     -376.57500966
 


--------------------------------------------------------------------------------------------------------


    POTLOK:  cpu time    0.4381: real time    0.4382


--------------------------------------------------------------------------------------------------------


 stress matrix after NEB project (eV)
    -24.10381      0.01114     -0.03119
      0.01114    -23.94069      0.09152
     -0.03119      0.09152     -1.56878
  FORCES: max atom, RMS     0.088476    0.043394
  FORCE total and by dimension    0.357834    0.088432
  Stress total and by dimension   34.009267   24.103812
     LOOP+:  cpu time 1486.9590: real time 1488.0340
    4ORBIT:  cpu time    0.0000: real time    0.0000
 


 total charge     
 
# of ion       s       p       d       tot
------------------------------------------
    1        0.484   0.375   8.288   9.148
    2        0.495   0.505   8.335   9.335
    3        0.497   0.501   8.327   9.325
    4        0.496   0.503   8.313   9.312
    5        0.484   0.375   8.285   9.145
    6        0.495   0.505   8.333   9.333
    7        0.495   0.500   8.320   9.314
    8        0.496   0.503   8.312   9.311
    9        0.484   0.375   8.289   9.148
   10        0.495   0.505   8.334   9.334
   11        0.497   0.501   8.327   9.325
   12        0.496   0.503   8.312   9.311
   13        0.484   0.375   8.284   9.144
   14        0.495   0.505   8.335   9.335
   15        0.495   0.500   8.321   9.315
   16        0.496   0.502   8.310   9.309
   17        0.485   0.375   8.287   9.147
   18        0.495   0.505   8.334   9.334
   19        0.495   0.500   8.322   9.316
   20        0.502   0.505   8.324   9.331
   21        0.490   0.376   8.322   9.187
   22        0.476   0.378   8.382   9.236
   23        0.495   0.499   8.323   9.317
   24        0.496   0.503   8.313   9.312
   25        0.485   0.375   8.289   9.149
   26        0.495   0.505   8.332   9.332
   27        0.495   0.500   8.321   9.315
   28        0.502   0.505   8.324   9.331
   29        0.490   0.376   8.319   9.184
   30        0.475   0.378   8.380   9.233
   31        0.495   0.499   8.321   9.315
   32        0.496   0.502   8.311   9.309
   33        0.484   0.375   8.289   9.148
   34        0.495   0.505   8.332   9.332
   35        0.497   0.501   8.327   9.325
   36        0.496   0.503   8.313   9.312
   37        0.484   0.375   8.287   9.146
   38        0.495   0.505   8.332   9.332
   39        0.495   0.500   8.322   9.316
   40        0.496   0.503   8.311   9.310
   41        0.485   0.375   8.291   9.151
   42        0.495   0.505   8.332   9.332
   43        0.497   0.501   8.328   9.326
   44        0.496   0.502   8.313   9.312
   45        0.484   0.375   8.287   9.146
   46        0.495   0.505   8.331   9.331
   47        0.495   0.500   8.321   9.315
   48        0.496   0.502   8.311   9.309
   49        0.484   0.375   8.286   9.146
   50        0.495   0.505   8.332   9.332
   51        0.495   0.500   8.321   9.315
   52        0.502   0.505   8.325   9.332
   53        0.490   0.376   8.318   9.183
   54        0.476   0.378   8.381   9.235
   55        0.494   0.499   8.321   9.315
   56        0.496   0.503   8.312   9.311
   57        0.485   0.375   8.288   9.147
   58        0.495   0.505   8.334   9.334
   59        0.495   0.500   8.322   9.316
   60        0.502   0.505   8.324   9.331
   61        0.489   0.375   8.318   9.182
   62        0.475   0.378   8.381   9.234
   63        0.495   0.499   8.322   9.316
   64        0.496   0.502   8.311   9.310
   65        1.582   3.340   0.000   4.923
   66        1.582   3.340   0.000   4.923
   67        1.582   3.340   0.000   4.923
   68        1.582   3.341   0.000   4.923
--------------------------------------------------
tot         37.830  42.987 532.446 613.263
 


 magnetization (x)
 
# of ion       s       p       d       tot
------------------------------------------
    1       -0.009  -0.027   0.695   0.659
    2       -0.003  -0.013   0.554   0.538
    3       -0.008  -0.028   0.731   0.694
    4       -0.008  -0.026   0.715   0.681
    5       -0.009  -0.027   0.694   0.659
    6       -0.003  -0.013   0.554   0.538
    7       -0.007  -0.028   0.697   0.662
    8       -0.008  -0.026   0.716   0.682
    9       -0.009  -0.027   0.694   0.658
   10       -0.003  -0.013   0.552   0.536
   11       -0.008  -0.028   0.730   0.694
   12       -0.008  -0.026   0.715   0.681
   13       -0.009  -0.027   0.696   0.660
   14       -0.003  -0.013   0.554   0.538
   15       -0.007  -0.028   0.697   0.662
   16       -0.008  -0.026   0.718   0.684
   17       -0.009  -0.027   0.693   0.658
   18       -0.003  -0.013   0.555   0.539
   19       -0.007  -0.028   0.696   0.661
   20       -0.006  -0.022   0.584   0.556
   21       -0.001  -0.027   0.697   0.669
   22       -0.010  -0.016   0.728   0.701
   23       -0.007  -0.028   0.694   0.659
   24       -0.008  -0.026   0.714   0.680
   25       -0.009  -0.027   0.692   0.656
   26       -0.003  -0.013   0.553   0.537
   27       -0.007  -0.028   0.696   0.661
   28       -0.006  -0.022   0.583   0.555
   29       -0.001  -0.027   0.700   0.671
   30       -0.011  -0.016   0.729   0.703
   31       -0.007  -0.028   0.696   0.661
   32       -0.008  -0.026   0.715   0.682
   33       -0.009  -0.027   0.694   0.659
   34       -0.003  -0.013   0.555   0.539
   35       -0.008  -0.028   0.730   0.694
   36       -0.008  -0.026   0.715   0.681
   37       -0.009  -0.027   0.693   0.658
   38       -0.003  -0.013   0.554   0.538
   39       -0.007  -0.028   0.696   0.661
   40       -0.008  -0.026   0.717   0.683
   41       -0.009  -0.027   0.692   0.657
   42       -0.003  -0.013   0.553   0.537
   43       -0.008  -0.028   0.730   0.693
   44       -0.008  -0.026   0.714   0.681
   45       -0.009  -0.026   0.694   0.658
   46       -0.003  -0.013   0.554   0.538
   47       -0.007  -0.028   0.697   0.662
   48       -0.008  -0.026   0.717   0.683
   49       -0.009  -0.026   0.694   0.659
   50       -0.003  -0.013   0.556   0.540
   51       -0.007  -0.028   0.697   0.662
   52       -0.006  -0.022   0.582   0.554
   53       -0.001  -0.027   0.701   0.673
   54       -0.011  -0.016   0.729   0.702
   55       -0.007  -0.028   0.696   0.661
   56       -0.008  -0.026   0.715   0.681
   57       -0.009  -0.027   0.693   0.658
   58       -0.003  -0.013   0.553   0.537
   59       -0.007  -0.028   0.696   0.661
   60       -0.006  -0.022   0.583   0.555
   61       -0.001  -0.027   0.701   0.673
   62       -0.011  -0.016   0.729   0.702
   63       -0.007  -0.028   0.695   0.660
   64       -0.008  -0.026   0.715   0.681
   65        0.002   0.110   0.000   0.112
   66        0.002   0.109   0.000   0.111
   67        0.002   0.110   0.000   0.112
   68        0.002   0.110   0.000   0.111
--------------------------------------------------
tot         -0.419  -1.056  42.875  41.400
 
 BZINTS: Fermi energy:  0.486107;664.000000 electrons
         Band energy:***********;  BLOECHL correction: -0.054356

 total amount of memory used by VASP MPI-rank0   259519. kBytes
=======================================================================

   base      :      30000. kBytes
   nonlr-proj:      12204. kBytes
   fftplans  :       6402. kBytes
   grid      :      16455. kBytes
   one-center:         93. kBytes
   wavefun   :     194365. kBytes
 
  
  
 General timing and accounting informations for this job:
 ========================================================
  
                  Total CPU time used (sec):     1610.335
                            User time (sec):     1505.308
                          System time (sec):      105.027
                         Elapsed time (sec):     1613.308
  
                   Maximum memory used (kb):      514044.
                   Average memory used (kb):           0.
  
                          Minor page faults:     25579986
                          Major page faults:            0
                 Voluntary context switches:          599
