       N       E                     dE             d eps       ncg     rms          rms(c)
DAV:   1     0.447768258662E+04    0.44777E+04   -0.24901E+05 32880   0.151E+03
DAV:   2     0.179321517480E+02   -0.44598E+04   -0.41773E+04 32880   0.344E+02
DAV:   3    -0.395072154345E+03   -0.41300E+03   -0.35408E+03 34095   0.145E+02
DAV:   4    -0.412061993761E+03   -0.16990E+02   -0.16631E+02 35034   0.320E+01
DAV:   5    -0.412376597746E+03   -0.31460E+00   -0.31434E+00 37905   0.358E+00
RMM:   6    -0.412387733164E+03   -0.11135E-01   -0.11131E-01 34169   0.638E-01
RMM:   7    -0.412391159552E+03   -0.34264E-02   -0.34173E-02 50161   0.249E-01
RMM:   8    -0.412391228441E+03   -0.68889E-04   -0.72397E-04 46762   0.284E-02
RMM:   9    -0.412391254301E+03   -0.25860E-04   -0.25607E-04 34531   0.924E-03
RMM:  10    -0.412391256580E+03   -0.22794E-05   -0.16552E-05 22749   0.371E-03
RMM:  11    -0.412391257430E+03   -0.84922E-06   -0.82164E-06 21201   0.217E-03
   1 F= -.41239126E+03 E0= -.41239126E+03  d E =0.000000E+00  mag=   103.9526
