 vasp.5.4.4.18Apr17-6-g9f103f2a35 (build Sep 06 2021 19:49:22) complex          
  
 executed on             LinuxIFC date 2022.01.03  17:00:20
 running on   72 total cores
 distrk:  each k-point on   72 cores,    1 groups
 distr:  one band on NCORES_PER_BAND=  24 cores,    3 groups


--------------------------------------------------------------------------------------------------------


 INCAR:
 POTCAR:    PAW_PBE Ni 02Aug2007                  
 POTCAR:    PAW_PBE Fe 06Sep2000                  

 ----------------------------------------------------------------------------- 
|                                                                             |
|           W    W    AA    RRRRR   N    N  II  N    N   GGGG   !!!           |
|           W    W   A  A   R    R  NN   N  II  NN   N  G    G  !!!           |
|           W    W  A    A  R    R  N N  N  II  N N  N  G       !!!           |
|           W WW W  AAAAAA  RRRRR   N  N N  II  N  N N  G  GGG   !            |
|           WW  WW  A    A  R   R   N   NN  II  N   NN  G    G                |
|           W    W  A    A  R    R  N    N  II  N    N   GGGG   !!!           |
|                                                                             |
|      For optimal performance we recommend to set                            |
|        NCORE= 4 - approx SQRT( number of cores)                             |
|      NCORE specifies how many cores store one orbital (NPAR=cpu/NCORE).     |
|      This setting can  greatly improve the performance of VASP for DFT.     |
|      The default,   NCORE=1            might be grossly inefficient         |
|      on modern multi-core architectures or massively parallel machines.     |
|      Do your own testing !!!!                                               |
|      Unfortunately you need to use the default for GW and RPA calculations. |
|      (for HF NCORE is supported but not extensively tested yet)             |
|                                                                             |
 ----------------------------------------------------------------------------- 

 POTCAR:    PAW_PBE Ni 02Aug2007                  
   VRHFIN =Ni:                                                                  
   LEXCH  = PE                                                                  
   EATOM  =  1077.6739 eV,   79.2068 Ry                                         
                                                                                
   TITEL  = PAW_PBE Ni 02Aug2007                                                
   LULTRA =        F    use ultrasoft PP ?                                      
   IUNSCR =        1    unscreen: 0-lin 1-nonlin 2-no                           
   RPACOR =    2.000    partial core radius                                     
   POMASS =   58.690; ZVAL   =   10.000    mass and valenz                      
   RCORE  =    2.300    outmost cutoff radius                                   
   RWIGS  =    2.430; RWIGS  =    1.286    wigner-seitz radius (au A)           
   ENMAX  =  269.532; ENMIN  =  202.149 eV                                      
   RCLOC  =    1.201    cutoff for local pot                                    
   LCOR   =        T    correct aug charges                                     
   LPAW   =        T    paw PP                                                  
   EAUG   =  544.565                                                            
   DEXC   =    0.000                                                            
   RMAX   =    2.357    core radius for proj-oper                               
   RAUG   =    1.300    factor for augmentation sphere                          
   RDEP   =    2.390    radius for radial grids                                 
   RDEPT  =    1.838    core radius for aug-charge                              
                                                                                
   Atomic configuration                                                         
    9 entries                                                                   
     n  l   j            E        occ.                                          
     1  0  0.50     -8206.4253   2.0000                                         
     2  0  0.50      -976.1748   2.0000                                         
     2  1  1.50      -839.0571   6.0000                                         
     3  0  0.50      -105.9991   2.0000                                         
     3  1  1.50       -66.4603   6.0000                                         
     3  2  2.50        -4.6458   9.0000                                         
     4  0  0.50        -4.4926   1.0000                                         
     4  1  1.50        -4.0817   0.0000                                         
     4  3  2.50        -1.3606   0.0000                                         
   Description                                                                  
     l       E           TYP  RCUT    TYP  RCUT                                 
     2     -4.6457903     23  2.300                                             
     2     -6.0063729     23  2.300                                             
     0     -4.4925590     23  2.300                                             
     0      5.0102601     23  2.300                                             
     1     -2.7211652     23  2.300                                             
     1     16.5183231     23  2.300                                             
  local pseudopotential read in
  partial core-charges read in
  partial kinetic energy density read in
  atomic valenz-charges read in
  non local Contribution for L=           2  read in
    real space projection operators read in
  non local Contribution for L=           2  read in
    real space projection operators read in
  non local Contribution for L=           0  read in
    real space projection operators read in
  non local Contribution for L=           0  read in
    real space projection operators read in
  non local Contribution for L=           1  read in
    real space projection operators read in
  non local Contribution for L=           1  read in
    real space projection operators read in
    PAW grid and wavefunctions read in
 
   number of l-projection  operators is LMAX  =           6
   number of lm-projection operators is LMMAX =          18
 
 POTCAR:    PAW_PBE Fe 06Sep2000                  
   VRHFIN =Fe:  d7 s1                                                           
   LEXCH  = PE                                                                  
   EATOM  =   594.3153 eV,   43.6809 Ry                                         
                                                                                
   TITEL  = PAW_PBE Fe 06Sep2000                                                
   LULTRA =        F    use ultrasoft PP ?                                      
   IUNSCR =        1    unscreen: 0-lin 1-nonlin 2-no                           
   RPACOR =    2.000    partial core radius                                     
   POMASS =   55.847; ZVAL   =    8.000    mass and valenz                      
   RCORE  =    2.300    outmost cutoff radius                                   
   RWIGS  =    2.460; RWIGS  =    1.302    wigner-seitz radius (au A)           
   ENMAX  =  267.882; ENMIN  =  200.911 eV                                      
   RCLOC  =    1.701    cutoff for local pot                                    
   LCOR   =        T    correct aug charges                                     
   LPAW   =        T    paw PP                                                  
   EAUG   =  511.368                                                            
   DEXC   =    0.000                                                            
   RMAX   =    2.356    core radius for proj-oper                               
   RAUG   =    1.300    factor for augmentation sphere                          
   RDEP   =    2.442    radius for radial grids                                 
   RDEPT  =    1.890    core radius for aug-charge                              
                                                                                
   Atomic configuration                                                         
    9 entries                                                                   
     n  l   j            E        occ.                                          
     1  0  0.50     -6993.8440   2.0000                                         
     2  0  0.50      -814.6047   2.0000                                         
     2  1  1.50      -693.3689   6.0000                                         
     3  0  0.50       -89.4732   2.0000                                         
     3  1  1.50       -55.6373   6.0000                                         
     3  2  2.50        -3.8151   7.0000                                         
     4  0  0.50        -4.2551   1.0000                                         
     4  1  1.50        -3.4015   0.0000                                         
     4  3  2.50        -1.3606   0.0000                                         
   Description                                                                  
     l       E           TYP  RCUT    TYP  RCUT                                 
     2     -3.8151135     23  2.300                                             
     2     -5.1756961     23  2.300                                             
     0     -4.2550963     23  2.300                                             
     0      7.2035603     23  2.300                                             
     1     -2.7211652     23  2.300                                             
     1     18.4316424     23  2.300                                             
  local pseudopotential read in
  partial core-charges read in
  partial kinetic energy density read in
  atomic valenz-charges read in
  non local Contribution for L=           2  read in
    real space projection operators read in
  non local Contribution for L=           2  read in
    real space projection operators read in
  non local Contribution for L=           0  read in
    real space projection operators read in
  non local Contribution for L=           0  read in
    real space projection operators read in
  non local Contribution for L=           1  read in
    real space projection operators read in
  non local Contribution for L=           1  read in
    real space projection operators read in
    PAW grid and wavefunctions read in
 
   number of l-projection  operators is LMAX  =           6
   number of lm-projection operators is LMMAX =          18
 
 Optimization of the real space projectors (new method)

 maximal supplied QI-value         = 16.25
 optimisation between [QCUT,QGAM] = [ 11.54, 23.24] = [ 37.28,151.24] Ry 
 Optimized for a Real-space Cutoff    1.45 Angstroem

   l    n(q)    QCUT    max X(q) W(low)/X(q) W(high)/X(q)  e(spline) 
   2      9    11.539    60.317    0.19E-03    0.47E-04    0.16E-06
   2      9    11.539    55.921    0.19E-03    0.48E-04    0.16E-06
   0     10    11.539    51.690    0.80E-04    0.50E-04    0.24E-06
   0     10    11.539    30.015    0.73E-04    0.45E-04    0.22E-06
   1     10    11.539    18.849    0.87E-04    0.16E-03    0.71E-07
   1     10    11.539    14.624    0.73E-04    0.13E-03    0.64E-07
 Optimization of the real space projectors (new method)

 maximal supplied QI-value         = 16.25
 optimisation between [QCUT,QGAM] = [ 11.54, 23.24] = [ 37.28,151.24] Ry 
 Optimized for a Real-space Cutoff    1.53 Angstroem

   l    n(q)    QCUT    max X(q) W(low)/X(q) W(high)/X(q)  e(spline) 
   2     10    11.539    80.901    0.11E-03    0.14E-03    0.21E-06
   2     10    11.539    75.754    0.11E-03    0.14E-03    0.22E-06
   0     11    11.539    58.752    0.52E-04    0.18E-04    0.33E-06
   0     11    11.539    30.679    0.44E-04    0.16E-04    0.30E-06
   1     10    11.539    17.977    0.53E-04    0.29E-04    0.13E-06
   1     10    11.539    13.559    0.44E-04    0.25E-04    0.11E-06
  PAW_PBE Ni 02Aug2007                  :
 energy of atom  1       EATOM=-1077.6739
 kinetic energy error for atom=    0.0030 (will be added to EATOM!!)
  PAW_PBE Fe 06Sep2000                  :
 energy of atom  2       EATOM= -594.3153
 kinetic energy error for atom=    0.0026 (will be added to EATOM!!)
 
 
 POSCAR: POSCAR                                  
  positions in direct lattice
  velocities in cartesian coordinates
 exchange correlation table for  LEXCH =        8
   RHO(1)=    0.500       N(1)  =     2000
   RHO(2)=  100.500       N(2)  =     4000
 


--------------------------------------------------------------------------------------------------------


 ion  position               nearest neighbor table
   1  0.999  0.001  0.094-  28 2.50  37 2.51   9 2.52  60 2.53   3 2.53   7 2.53  25 2.54  63 2.54
                            35 2.54
   2  0.002  0.000  0.383-  40 2.46  34 2.48  42 2.48   4 2.50  10 2.51  29 2.52   8 2.53  26 2.54
                            36 2.55
   3  0.248  0.999  0.096-  51 2.47  38 2.48  60 2.49   5 2.51  11 2.52   9 2.52  25 2.53   1 2.53
                            61 2.56
   4  0.249  0.999  0.384-  40 2.44  52 2.47  39 2.47  32 2.48   2 2.50  14 2.50  26 2.53  10 2.54
                             6 2.57
   5  0.499  0.002  0.095-  38 2.49  35 2.51   3 2.51  41 2.52  12 2.53  51 2.54  53 2.54  61 2.55
                            62 2.57
   6  0.502  0.998  0.383-  33 2.44  16 2.45  39 2.48  14 2.48  36 2.49  52 2.52  13 2.53  54 2.55
                             4 2.57
   7  0.998  0.251  0.096-  37 2.48  43 2.49  35 2.50  17 2.50  12 2.53  45 2.53   1 2.53   9 2.55
                            15 2.55
   8  0.000  0.250  0.383-  24 2.46  42 2.47  49 2.48  44 2.51  10 2.51  36 2.51  18 2.52   2 2.53
                            13 2.54
   9  0.249  0.249  0.095-  37 2.48  38 2.48   1 2.52  43 2.52   3 2.52  48 2.54  11 2.54   7 2.55
                            46 2.55
  10  0.249  0.251  0.385-  49 2.46  40 2.47   8 2.51   2 2.51  22 2.52  47 2.53  44 2.54   4 2.54
                            39 2.55
  11  0.334  0.165  0.192-  38 2.48  48 2.50  21 2.51  14 2.51  61 2.52   3 2.52  40 2.52  22 2.53
                            41 2.54  60 2.54  37 2.54   9 2.54
  12  0.749  0.253  0.097-  41 2.47  19 2.49  17 2.51  35 2.51  23 2.51   7 2.53   5 2.53  38 2.55
                            15 2.55
  13  0.750  0.251  0.384-  50 2.43  16 2.49  24 2.49  18 2.51  39 2.51  20 2.52  36 2.52   6 2.53
                             8 2.54
  14  0.418  0.084  0.289-   6 2.48  39 2.49  40 2.49  61 2.49   4 2.50  22 2.50  11 2.51  32 2.52
                            16 2.53  41 2.53  33 2.55  50 2.56
  15  0.832  0.166  0.194-  16 2.48  45 2.48  41 2.49  42 2.49  35 2.51  62 2.51  24 2.51  23 2.52
                            37 2.54  12 2.55   7 2.55  63 2.55
  16  0.669  0.084  0.290-   6 2.45  62 2.48  15 2.48  13 2.49  42 2.50  64 2.52  36 2.52  14 2.53
                            24 2.53  41 2.53  50 2.53  33 2.55
  17  0.999  0.499  0.097-  45 2.48   7 2.50  43 2.51  12 2.51  27 2.52  51 2.52  25 2.53  19 2.53
                            23 2.54
  18  0.999  0.499  0.384-  56 2.42  24 2.46  44 2.49  31 2.49  13 2.51  26 2.51   8 2.52  20 2.53
                            52 2.55
  19  0.748  0.499  0.096-  46 2.48  12 2.49  58 2.49  21 2.52  25 2.52  28 2.53  17 2.53  23 2.56
                            38 2.57
  20  0.750  0.500  0.385-  50 2.45  47 2.49  59 2.49  31 2.50  26 2.51  29 2.51  13 2.52  18 2.53
                            39 2.59
  21  0.583  0.413  0.193-  48 2.47  41 2.49  58 2.49  22 2.50  23 2.50  11 2.51  19 2.52  38 2.54
                            46 2.54  59 2.56  50 2.56  57 2.56
  22  0.421  0.333  0.289-  21 2.50  47 2.50  48 2.50  14 2.50  40 2.51  59 2.52  10 2.52  50 2.52
                            39 2.53  30 2.53  11 2.53  49 2.54
  23  0.831  0.415  0.194-  45 2.45  58 2.47  41 2.47  50 2.49  21 2.50  31 2.51  24 2.51  12 2.51
                            15 2.52  27 2.53  17 2.54  19 2.56
  24  0.919  0.334  0.290-   8 2.46  18 2.46  45 2.46  13 2.49  50 2.50  42 2.50  23 2.51  15 2.51
                            56 2.52  16 2.53  49 2.54  31 2.55
  25  0.998  0.749  0.096-  60 2.47  51 2.48  28 2.48  58 2.51  19 2.52   3 2.53  17 2.53  27 2.53
                             1 2.54
  26  0.999  0.748  0.383-  31 2.44  34 2.48  52 2.48  32 2.49  29 2.50  20 2.51  18 2.51   4 2.53
                             2 2.54
  27  0.082  0.666  0.193-  45 2.49  51 2.50  58 2.50  31 2.50  32 2.51  60 2.51  17 2.52  25 2.53
                            23 2.53  61 2.54  55 2.54  56 2.55
  28  0.753  0.752  0.095-  25 2.48   1 2.50  63 2.51  19 2.53  46 2.54  57 2.54  58 2.55  53 2.57
                            35 2.58
  29  0.752  0.750  0.384-  64 2.44  59 2.47  26 2.50  20 2.51  34 2.51   2 2.52  47 2.54  36 2.55
                            54 2.56
  30  0.417  0.582  0.292-  49 2.46  54 2.48  47 2.48  33 2.51  55 2.51  59 2.51  64 2.53  22 2.53
                            48 2.56  56 2.56  57 2.57  44 2.60
  31  0.916  0.585  0.289-  26 2.44  58 2.49  50 2.49  18 2.49  20 2.50  27 2.50  34 2.51  23 2.51
                            59 2.51  56 2.52  32 2.53  24 2.55
  32  0.168  0.834  0.289-   4 2.48  61 2.48  26 2.49  56 2.50  27 2.51  40 2.51  34 2.51  52 2.52
                            14 2.52  33 2.53  31 2.53  60 2.54
  33  0.416  0.830  0.291-   6 2.44  56 2.50  62 2.51  64 2.51  30 2.51  55 2.51  54 2.52  52 2.53
                            32 2.53  61 2.53  14 2.55  16 2.55
  34  0.920  0.835  0.288-   2 2.48  26 2.48  63 2.50  31 2.51  32 2.51  29 2.51  60 2.51  59 2.54
                            40 2.54  42 2.54  58 2.55  64 2.56
  35  0.749  0.005  0.097-   7 2.50  15 2.51  12 2.51   5 2.51   1 2.54  63 2.55  62 2.55  53 2.55
                            28 2.58
  36  0.751  0.002  0.387-  64 2.48   6 2.49   8 2.51  16 2.52  13 2.52  42 2.54   2 2.55  29 2.55
                            54 2.60
  37  0.085  0.169  0.190-   9 2.48   7 2.48   1 2.51  48 2.53  15 2.54  45 2.54  11 2.54  63 2.55
                            60 2.56  42 2.57  40 2.62  49 2.62
  38  0.493  0.245  0.095-   9 2.48   3 2.48  11 2.48   5 2.49  46 2.52  21 2.54  41 2.54  12 2.55
                            19 2.57
  39  0.496  0.241  0.386-   4 2.47   6 2.48  14 2.49  13 2.51  22 2.53  50 2.54  10 2.55  47 2.57
                            20 2.59
  40  0.172  0.085  0.291-   4 2.44   2 2.46  10 2.47  14 2.49  22 2.51  32 2.51  11 2.52  34 2.54
                            49 2.57  42 2.58  60 2.60  37 2.62
  41  0.588  0.169  0.192-  12 2.47  23 2.47  15 2.49  21 2.49  62 2.51   5 2.52  16 2.53  14 2.53
                            11 2.54  38 2.54  61 2.56  50 2.57
  42  0.917  0.085  0.289-   8 2.47   2 2.48  15 2.49  16 2.50  24 2.50  36 2.54  64 2.54  34 2.54
                            63 2.54  37 2.57  49 2.58  40 2.58
  43  0.246  0.497  0.097-   7 2.49  17 2.51   9 2.52  45 2.53  55 2.54  48 2.54  53 2.55  46 2.58
                            51 2.59
  44  0.245  0.499  0.392-  18 2.49  54 2.49   8 2.51  10 2.54  49 2.55  56 2.55  52 2.56  30 2.60
                            47 2.61
  45  0.074  0.415  0.193-  23 2.45  24 2.46  17 2.48  15 2.48  27 2.49   7 2.53  43 2.53  37 2.54
                            55 2.55  49 2.58  56 2.59  48 2.67
  46  0.503  0.500  0.095-  19 2.48  38 2.52  48 2.53  28 2.54  21 2.54   9 2.55  53 2.55  57 2.55
                            43 2.58
  47  0.502  0.498  0.385-  30 2.48  20 2.49  59 2.49  22 2.50  54 2.50  10 2.53  29 2.54  39 2.57
                            44 2.61
  48  0.339  0.415  0.193-  21 2.47  11 2.50  22 2.50  57 2.52  37 2.53  46 2.53  55 2.54  43 2.54
                             9 2.54  49 2.55  30 2.56  45 2.67
  49  0.173  0.340  0.291-  30 2.46  10 2.46   8 2.48  56 2.52  24 2.54  22 2.54  48 2.55  44 2.55
                            40 2.57  42 2.58  45 2.58  37 2.62
  50  0.672  0.336  0.292-  13 2.43  20 2.45  31 2.49  23 2.49  24 2.50  22 2.52  16 2.53  39 2.54
                            59 2.54  14 2.56  21 2.56  41 2.57
  51  0.245  0.753  0.097-   3 2.47  25 2.48  27 2.50  61 2.51  17 2.52   5 2.54  53 2.57  43 2.59
                            55 2.60
  52  0.247  0.754  0.387-   4 2.47  26 2.48  56 2.50  32 2.52   6 2.52  33 2.53  18 2.55  44 2.56
                            54 2.57
  53  0.498  0.750  0.096-  57 2.53   5 2.54  46 2.55  35 2.55  43 2.55  55 2.56  62 2.57  28 2.57
                            51 2.57
  54  0.496  0.742  0.388-  30 2.48  44 2.49  47 2.50  64 2.51  33 2.52   6 2.55  29 2.56  52 2.57
                            36 2.60
  55  0.332  0.663  0.195-  33 2.51  30 2.51  56 2.53  57 2.54  48 2.54  43 2.54  27 2.54  61 2.55
                            45 2.55  62 2.56  53 2.56  51 2.60
  56  0.166  0.585  0.293-  18 2.42  52 2.50  32 2.50  33 2.50  24 2.52  31 2.52  49 2.52  55 2.53
                            27 2.55  44 2.55  30 2.56  45 2.59
  57  0.586  0.668  0.193-  63 2.50  59 2.52  48 2.52  58 2.52  53 2.53  55 2.54  28 2.54  62 2.55
                            46 2.55  21 2.56  30 2.57  64 2.57
  58  0.831  0.659  0.192-  23 2.47  31 2.49  19 2.49  21 2.49  27 2.50  25 2.51  59 2.52  57 2.52
                            28 2.55  34 2.55  60 2.56  63 2.57
  59  0.668  0.585  0.290-  29 2.47  47 2.49  20 2.49  31 2.51  30 2.51  64 2.52  58 2.52  57 2.52
                            22 2.52  34 2.54  50 2.54  21 2.56
  60  0.082  0.914  0.191-  25 2.47   3 2.49  63 2.51  27 2.51  34 2.51   1 2.53  61 2.53  11 2.54
                            32 2.54  58 2.56  37 2.56  40 2.60
  61  0.334  0.916  0.194-  32 2.48  14 2.49  62 2.49  51 2.51  11 2.52  33 2.53  60 2.53  27 2.54
                             5 2.55  55 2.55   3 2.56  41 2.56
  62  0.582  0.919  0.195-  16 2.48  61 2.49  41 2.51  33 2.51  15 2.51  35 2.55  57 2.55  64 2.55
                            55 2.56  53 2.57  63 2.57   5 2.57
  63  0.834  0.914  0.192-  57 2.50  34 2.50  60 2.51  28 2.51   1 2.54  42 2.54  35 2.55  15 2.55
                            37 2.55  62 2.57  58 2.57  64 2.59
  64  0.667  0.834  0.293-  29 2.44  36 2.48  33 2.51  54 2.51  16 2.52  59 2.52  30 2.53  42 2.54
                            62 2.55  34 2.56  57 2.57  63 2.59
 

IMPORTANT INFORMATION: All symmetrisations will be switched off!
NOSYMM: (Re-)initialisation of all symmetry stuff for point group C_1.

 
 

Automatic generation of k-mesh.
 generate k-points for:    4    4    2
Space group operators:
 irot       det(A)        alpha          n_x          n_y          n_z        tau_x        tau_y        tau_z
    1     1.000000     0.000001     1.000000     0.000000     0.000000     0.000000     0.000000     0.000000
 
 Subroutine IBZKPT returns following result:
 ===========================================
 
 Found     20 irreducible k-points:
 
 Following reciprocal coordinates:
            Coordinates               Weight
  0.000000  0.000000  0.000000      1.000000
  0.250000  0.000000  0.000000      2.000000
  0.500000  0.000000  0.000000      1.000000
  0.000000  0.250000  0.000000      2.000000
  0.250000  0.250000  0.000000      2.000000
  0.500000  0.250000  0.000000      2.000000
 -0.250000  0.250000  0.000000      2.000000
  0.000000  0.500000  0.000000      1.000000
  0.250000  0.500000  0.000000      2.000000
  0.500000  0.500000  0.000000      1.000000
  0.000000  0.000000  0.500000      1.000000
  0.250000  0.000000  0.500000      2.000000
  0.500000  0.000000  0.500000      1.000000
  0.000000  0.250000  0.500000      2.000000
  0.250000  0.250000  0.500000      2.000000
  0.500000  0.250000  0.500000      2.000000
 -0.250000  0.250000  0.500000      2.000000
  0.000000  0.500000  0.500000      1.000000
  0.250000  0.500000  0.500000      2.000000
  0.500000  0.500000  0.500000      1.000000
 
 Following cartesian coordinates:
            Coordinates               Weight
  0.000000  0.000000  0.000000      1.000000
  0.024752  0.014290  0.000000      2.000000
  0.049503  0.028581  0.000000      1.000000
  0.000000  0.028581  0.000000      2.000000
  0.024752  0.042871  0.000000      2.000000
  0.049503  0.057162  0.000000      2.000000
 -0.024752  0.014290  0.000000      2.000000
  0.000000  0.057162  0.000000      1.000000
  0.024752  0.071452  0.000000      2.000000
  0.049503  0.085742  0.000000      1.000000
  0.000000  0.000000  0.023526      1.000000
  0.024752  0.014290  0.023526      2.000000
  0.049503  0.028581  0.023526      1.000000
  0.000000  0.028581  0.023526      2.000000
  0.024752  0.042871  0.023526      2.000000
  0.049503  0.057162  0.023526      2.000000
 -0.024752  0.014290  0.023526      2.000000
  0.000000  0.057162  0.023526      1.000000
  0.024752  0.071452  0.023526      2.000000
  0.049503  0.085742  0.023526      1.000000
 
 TETIRR: Found     96 inequivalent tetrahedra from      192


--------------------------------------------------------------------------------------------------------




 Dimension of arrays:
   k-points           NKPTS =     20   k-points in BZ     NKDIM =     20   number of bands    NBANDS=    411
   number of dos      NEDOS =    301   number of ions     NIONS =     64
   non local maximal  LDIM  =      6   non local SUM 2l+1 LMDIM =     18
   total plane-waves  NPLWV = ******
   max r-space proj   IRMAX =   8293   max aug-charges    IRDMAX=  19624
   dimension x,y,z NGX =    80 NGY =   80 NGZ =  160
   dimension x,y,z NGXF=   160 NGYF=  160 NGZF=  320
   support grid    NGXF=   160 NGYF=  160 NGZF=  320
   ions per type =              34  30
   NGX,Y,Z   is equivalent  to a cutoff of  13.17, 13.17, 12.52 a.u.
   NGXF,Y,Z  is equivalent  to a cutoff of  26.34, 26.34, 25.03 a.u.

 SYSTEM =  SQS-NiFe                                
 POSCAR =  POSCAR                                  

 Startparameter for this run:
   NWRITE =      2    write-flag & timer
   PREC   = accura    normal or accurate (medium, high low for compatibility)
   ISTART =      0    job   : 0-new  1-cont  2-samecut
   ICHARG =     11    charge: 1-file 2-atom 10-const
   ISPIN  =      2    spin polarized calculation?
   LNONCOLLINEAR =      F non collinear calculations
   LSORBIT =      F    spin-orbit coupling
   INIWAV =      1    electr: 0-lowe 1-rand  2-diag
   LASPH  =      F    aspherical Exc in radial PAW
   METAGGA=      F    non-selfconsistent MetaGGA calc.

 Electronic Relaxation 1
   ENCUT  =  520.0 eV  38.22 Ry    6.18 a.u.  18.78 18.78 39.52*2*pi/ulx,y,z
   ENINI  =  520.0     initial cutoff
   ENAUG  =  544.6 eV  augmentation charge cutoff
   NELM   =    200;   NELMIN=  2; NELMDL= -5     # of ELM steps 
   EDIFF  = 0.1E-05   stopping-criterion for ELM
   LREAL  =      T    real-space projection
   NLSPLINE    = F    spline interpolate recip. space projectors
   LCOMPAT=      F    compatible to vasp.4.4
   GGA_COMPAT  = T    GGA compatible to vasp.4.4-vasp.4.6
   LMAXPAW     = -100 max onsite density
   LMAXMIX     =    2 max onsite mixed and CHGCAR
   VOSKOWN=      0    Vosko Wilk Nusair interpolation
   ROPT   =   -0.00025  -0.00025
 Ionic relaxation
   EDIFFG = -.2E-01   stopping-criterion for IOM
   NSW    =      0    number of steps for IOM
   NBLOCK =      1;   KBLOCK =      1    inner block; outer block 
   IBRION =     -1    ionic relax: 0-MD 1-quasi-New 2-CG
   NFREE  =      0    steps in history (QN), initial steepest desc. (CG)
   ISIF   =      2    stress and relaxation
   IWAVPR =     10    prediction:  0-non 1-charg 2-wave 3-comb
   ISYM   =      0    0-nonsym 1-usesym 2-fastsym
   LCORR  =      T    Harris-Foulkes like correction to forces

   POTIM  = 0.5000    time-step for ionic-motion
   TEIN   =    0.0    initial temperature
   TEBEG  =    0.0;   TEEND  =   0.0 temperature during run
   SMASS  =  -3.00    Nose mass-parameter (am)
   estimated Nose-frequenzy (Omega)   =  0.10E-29 period in steps =****** mass=  -0.233E-26a.u.
   SCALEE = 1.0000    scale energy and forces
   NPACO  =    256;   APACO  = 16.0  distance and # of slots for P.C.
   PSTRESS=    0.0 pullay stress

  Mass of Ions in am
   POMASS =  58.69 55.85
  Ionic Valenz
   ZVAL   =  10.00  8.00
  Atomic Wigner-Seitz radii
   RWIGS  =  -1.00 -1.00
  virtual crystal weights 
   VCA    =   1.00  1.00
   NELECT =     580.0000    total number of electrons
   NUPDOWN=      -1.0000    fix difference up-down

 DOS related values:
   EMIN   =  10.00;   EMAX   =-10.00  energy-range for DOS
   EFERMI =   0.00
   ISMEAR =    -5;   SIGMA  =   0.20  broadening in eV -4-tet -1-fermi 0-gaus

 Electronic relaxation 2 (details)
   IALGO  =     68    algorithm
   LDIAG  =      T    sub-space diagonalisation (order eigenvalues)
   LSUBROT=      F    optimize rotation matrix (better conditioning)
   TURBO    =      0    0=normal 1=particle mesh
   IRESTART =      0    0=no restart 2=restart with 2 vectors
   NREBOOT  =      0    no. of reboots
   NMIN     =      0    reboot dimension
   EREF     =   0.00    reference energy to select bands
   IMIX   =      4    mixing-type and parameters
     AMIX     =   0.40;   BMIX     =  1.00
     AMIX_MAG =   1.60;   BMIX_MAG =  1.00
     AMIN     =   0.10
     WC   =   100.;   INIMIX=   1;  MIXPRE=   1;  MAXMIX= -45

 Intra band minimization:
   WEIMIN = 0.0000     energy-eigenvalue tresh-hold
   EBREAK =  0.61E-09  absolut break condition
   DEPER  =   0.30     relativ break condition  

   TIME   =   0.40     timestep for ELM

  volume/ion in A,a.u.               =      29.34       197.98
  Fermi-wavevector in a.u.,A,eV,Ry     =   1.106657  2.091279 16.662916  1.224690
  Thomas-Fermi vector in A             =   2.243161
 
 Write flags
   LWAVE        =      F    write WAVECAR
   LDOWNSAMPLE  =      F    k-point downsampling of WAVECAR
   LCHARG       =      F    write CHGCAR
   LVTOT        =      F    write LOCPOT, total local potential
   LVHAR        =      F    write LOCPOT, Hartree potential only
   LELF         =      F    write electronic localiz. function (ELF)
   LORBIT       =     11    0 simple, 1 ext, 2 COOP (PROOUT), +10 PAW based schemes


 Dipole corrections
   LMONO  =      F    monopole corrections only (constant potential shift)
   LDIPOL =      T    correct potential (dipole corrections)
   IDIPOL =      3    1-x, 2-y, 3-z, 4-all directions 
   EPSILON=  1.0000000 bulk dielectric constant

 Exchange correlation treatment:
   GGA     =    --    GGA type
   LEXCH   =     8    internal setting for exchange type
   VOSKOWN=      0    Vosko Wilk Nusair interpolation
   LHFCALC =     F    Hartree Fock is set to
   LHFONE  =     F    Hartree Fock one center treatment
   AEXX    =    0.0000 exact exchange contribution

 Linear response parameters
   LEPSILON=     F    determine dielectric tensor
   LRPA    =     F    only Hartree local field effects (RPA)
   LNABLA  =     F    use nabla operator in PAW spheres
   LVEL    =     F    velocity operator in full k-point grid
   LINTERFAST=   F  fast interpolation
   KINTER  =     0    interpolate to denser k-point grid
   CSHIFT  =0.1000    complex shift for real part using Kramers Kronig
   OMEGAMAX=  -1.0    maximum frequency
   DEG_THRESHOLD= 0.2000000E-02 threshold for treating states as degnerate
   RTIME   =   -0.100 relaxation time in fs
  (WPLASMAI=    0.000 imaginary part of plasma frequency in eV, 0.658/RTIME)
   DFIELD  = 0.0000000 0.0000000 0.0000000 field for delta impulse in time
 
 Orbital magnetization related:
   ORBITALMAG=     F  switch on orbital magnetization
   LCHIMAG   =     F  perturbation theory with respect to B field
   DQ        =  0.001000  dq finite difference perturbation B field
   LLRAUG    =     F  two centre corrections for induced B field



--------------------------------------------------------------------------------------------------------


 Static calculation
 charge density and potential remain constant during run
 spin polarized calculation
 RMM-DIIS sequential band-by-band and
  variant of blocked Davidson during initial phase
 perform sub-space diagonalisation
    before iterative eigenvector-optimisation
 no mixing
 using additional bands          121
 real space projection scheme for non local part
 use partial core corrections
 calculate Harris-corrections to forces 
   (improved forces if not selfconsistent)
 use gradient corrections 
 WARNING: stress and forces are not correct
  (second derivative of E(xc) not defined)
 use of overlap-Matrix (Vanderbilt PP)
 Fermi weights with tetrahedron method with Bloechl corrections


--------------------------------------------------------------------------------------------------------


  energy-cutoff  :      520.00
  volume of cell :     1877.64
      direct lattice vectors                 reciprocal lattice vectors
    10.100310000  0.000000000  0.000000000     0.099006862  0.057161638  0.000000000
    -5.050155000  8.747125050  0.000000000     0.000000000  0.114323277  0.000000000
     0.000000000  0.000000000 21.252660910     0.000000000  0.000000000  0.047052932

  length of vectors
    10.100310000 10.100310003 21.252660910     0.114323277  0.114323277  0.047052932


 
 k-points in units of 2pi/SCALE and weight: read from INCAR                         
   0.00000000  0.00000000  0.00000000       0.031
   0.02475172  0.01429041  0.00000000       0.062
   0.04950343  0.02858082  0.00000000       0.031
   0.00000000  0.02858082  0.00000000       0.062
   0.02475172  0.04287123  0.00000000       0.062
   0.04950343  0.05716164  0.00000000       0.062
  -0.02475172  0.01429041  0.00000000       0.062
   0.00000000  0.05716164  0.00000000       0.031
   0.02475172  0.07145205  0.00000000       0.062
   0.04950343  0.08574246  0.00000000       0.031
   0.00000000  0.00000000  0.02352647       0.031
   0.02475172  0.01429041  0.02352647       0.062
   0.04950343  0.02858082  0.02352647       0.031
   0.00000000  0.02858082  0.02352647       0.062
   0.02475172  0.04287123  0.02352647       0.062
   0.04950343  0.05716164  0.02352647       0.062
  -0.02475172  0.01429041  0.02352647       0.062
   0.00000000  0.05716164  0.02352647       0.031
   0.02475172  0.07145205  0.02352647       0.062
   0.04950343  0.08574246  0.02352647       0.031
 
 k-points in reciprocal lattice and weights: read from INCAR                         
   0.00000000  0.00000000  0.00000000       0.031
   0.25000000  0.00000000  0.00000000       0.062
   0.50000000  0.00000000  0.00000000       0.031
   0.00000000  0.25000000  0.00000000       0.062
   0.25000000  0.25000000  0.00000000       0.062
   0.50000000  0.25000000  0.00000000       0.062
  -0.25000000  0.25000000  0.00000000       0.062
   0.00000000  0.50000000  0.00000000       0.031
   0.25000000  0.50000000  0.00000000       0.062
   0.50000000  0.50000000  0.00000000       0.031
   0.00000000  0.00000000  0.50000000       0.031
   0.25000000  0.00000000  0.50000000       0.062
   0.50000000  0.00000000  0.50000000       0.031
   0.00000000  0.25000000  0.50000000       0.062
   0.25000000  0.25000000  0.50000000       0.062
   0.50000000  0.25000000  0.50000000       0.062
  -0.25000000  0.25000000  0.50000000       0.062
   0.00000000  0.50000000  0.50000000       0.031
   0.25000000  0.50000000  0.50000000       0.062
   0.50000000  0.50000000  0.50000000       0.031
 
 position of ions in fractional coordinates (direct lattice) 
   0.99904300  0.00064200  0.09410586
   0.00195388  0.00049582  0.38263438
   0.24849100  0.99862800  0.09563755
   0.24882230  0.99892072  0.38363891
   0.49902500  0.00192700  0.09538843
   0.50246233  0.99824220  0.38255863
   0.99813900  0.25067400  0.09552521
   0.00010919  0.24981806  0.38349260
   0.24921500  0.24886200  0.09476883
   0.24904143  0.25065165  0.38470360
   0.33446800  0.16514600  0.19222469
   0.74893500  0.25278100  0.09675772
   0.74976383  0.25122302  0.38426045
   0.41848793  0.08401433  0.28886138
   0.83203200  0.16588400  0.19407448
   0.66863160  0.08377378  0.28958192
   0.99908600  0.49910800  0.09662298
   0.99899694  0.49882697  0.38385858
   0.74816900  0.49871100  0.09562882
   0.74953608  0.50019719  0.38513136
   0.58310200  0.41320400  0.19269936
   0.42077520  0.33299548  0.28940857
   0.83119700  0.41475900  0.19429042
   0.91890744  0.33408592  0.28994110
   0.99765800  0.74896900  0.09614336
   0.99864459  0.74754668  0.38272096
   0.08195100  0.66570400  0.19334166
   0.75346500  0.75172800  0.09521148
   0.75238709  0.75014569  0.38421377
   0.41737179  0.58207228  0.29170006
   0.91615226  0.58491842  0.28937747
   0.16828067  0.83445393  0.28874549
   0.41644189  0.83013181  0.29119500
   0.92009313  0.83491829  0.28817985
   0.74918200  0.00453800  0.09669603
   0.75076015  0.00194954  0.38687471
   0.08475800  0.16932700  0.18974338
   0.49319000  0.24544000  0.09526096
   0.49603617  0.24059949  0.38642687
   0.17243779  0.08481553  0.29050527
   0.58776100  0.16931300  0.19204658
   0.91732955  0.08535549  0.28923505
   0.24596400  0.49669300  0.09728245
   0.24538932  0.49945367  0.39157246
   0.07438400  0.41509600  0.19330907
   0.50297300  0.49962100  0.09454619
   0.50230352  0.49806800  0.38546788
   0.33917200  0.41514500  0.19285128
   0.17281644  0.33982342  0.29116224
   0.67221219  0.33629568  0.29166867
   0.24490500  0.75270000  0.09701936
   0.24740871  0.75424745  0.38744251
   0.49840300  0.74988300  0.09618992
   0.49550496  0.74235524  0.38774554
   0.33208500  0.66262100  0.19522695
   0.16555908  0.58538305  0.29270611
   0.58579400  0.66826100  0.19270140
   0.83088100  0.65877500  0.19245024
   0.66762000  0.58517049  0.28994464
   0.08235500  0.91427100  0.19050529
   0.33394400  0.91584300  0.19411435
   0.58231600  0.91865200  0.19488936
   0.83419400  0.91449400  0.19236584
   0.66677887  0.83392042  0.29275936
 
 position of ions in cartesian coordinates  (Angst):
  10.08740180  0.00561565  1.99999993
   0.01723085  0.00433700  8.13199868
  -2.53339006  8.73512399  2.03255242
  -2.53152208  8.73768448  8.15334760
   5.03057555  0.01685571  2.02725796
   0.03374742  8.73174939  8.13038875
   8.81557077  2.19267682  2.03016490
  -1.26051704  2.18518982  8.15023815
   1.26035708  2.17682703  2.01408981
   1.24956595  2.19248131  8.17597518
   2.54421759  1.44455271  4.08528616
   6.28789244  2.21110702  2.05635901
   6.30413193  2.19747916  8.16655711
   3.80257244  0.73488385  6.13907287
   7.56604122  1.45100809  4.12459911
   6.33031581  0.73277975  6.15438635
   7.57050555  4.36576009  2.05349543
   7.57102529  4.36330188  8.15801623
   5.03817098  4.36228748  2.03236688
   5.04447341  4.37528734  8.18506611
   3.80276671  3.61434706  4.09537416
   2.56828119  2.91275313  6.15070218
   6.30075013  3.62794884  4.12918841
   7.59406434  2.92229136  6.16201996
   6.29424553  6.55132550  2.04330223
   6.31139338  6.53888428  8.13383887
  -2.53417788  5.82299613  4.10902474
   3.81388716  6.57545882  2.02349730
   3.81099089  6.56161812  8.16556500
   1.27602928  5.09145902  6.19940256
   6.29949314  5.11635458  6.15004120
  -2.51443480  7.29907287  6.13661004
   0.01389791  7.26126674  6.18866864
   5.07675909  7.30313472  6.12458867
   7.54405284  0.03969445  2.05504794
   7.57306479  0.01705284  8.22211699
   0.00095448  1.48112444  4.03255172
   3.74186185  2.14689437  2.02454888
   3.79505441  2.10455382  8.21259932
   1.31334358  0.74189203  6.17400995
   5.08151141  1.48100198  4.08150084
   8.83425433  0.74661516  6.14701434
  -0.02406399  4.34463578  2.06751092
  -0.04381022  4.36878370  8.32195677
  -1.34499768  3.63089662  4.10833212
   2.55701973  4.37024736  2.00935812
   2.55810067  4.35666304  8.19221813
   1.32919575  3.63132523  4.09860286
   0.02933868  2.97247797  6.18797235
   5.09120614  2.94162039  6.19873525
  -1.32763525  6.58396103  2.06191956
  -1.31016189  6.59749678  8.23418421
   1.24699942  6.55932037  2.04429175
   1.25574468  6.49347415  8.24062458
   0.00782269  5.79602875  4.14909217
  -1.28407711  5.12041872  6.22078380
   2.54187937  5.84536253  4.09541751
   5.06523981  5.76238730  4.09007969
   3.78796729  5.11855944  6.16209502
  -3.78539923  7.99724277  4.04874433
  -1.25221118  8.01099325  4.12544646
   1.24223713  8.03556392  4.14191748
   3.80728155  7.99919338  4.08828597
   2.52324591  7.29440619  6.22191532
 


--------------------------------------------------------------------------------------------------------


 k-point  1 :   0.0000 0.0000 0.0000  plane waves:   50641
 k-point  2 :   0.2500 0.0000 0.0000  plane waves:   50503
 k-point  3 :   0.5000 0.0000 0.0000  plane waves:   50582
 k-point  4 :   0.0000 0.2500 0.0000  plane waves:   50503
 k-point  5 :   0.2500 0.2500 0.0000  plane waves:   50569
 k-point  6 :   0.5000 0.2500 0.0000  plane waves:   50569
 k-point  7 :  -0.2500 0.2500 0.0000  plane waves:   50503
 k-point  8 :   0.0000 0.5000 0.0000  plane waves:   50582
 k-point  9 :   0.2500 0.5000 0.0000  plane waves:   50569
 k-point 10 :   0.5000 0.5000 0.0000  plane waves:   50582
 k-point 11 :   0.0000 0.0000 0.5000  plane waves:   50528
 k-point 12 :   0.2500 0.0000 0.5000  plane waves:   50540
 k-point 13 :   0.5000 0.0000 0.5000  plane waves:   50564
 k-point 14 :   0.0000 0.2500 0.5000  plane waves:   50540
 k-point 15 :   0.2500 0.2500 0.5000  plane waves:   50524
 k-point 16 :   0.5000 0.2500 0.5000  plane waves:   50524
 k-point 17 :  -0.2500 0.2500 0.5000  plane waves:   50540
 k-point 18 :   0.0000 0.5000 0.5000  plane waves:   50564
 k-point 19 :   0.2500 0.5000 0.5000  plane waves:   50524
 k-point 20 :   0.5000 0.5000 0.5000  plane waves:   50564

 maximum and minimum number of plane-waves per node :      2132     2072

 maximum number of plane-waves:     50641
 maximum index in each direction: 
   IXMAX=   19   IYMAX=   18   IZMAX=   39
   IXMIN=  -19   IYMIN=  -19   IZMIN=  -40


 real space projection operators:
  total allocation   :      65775.94 KBytes
  max/ min on nodes  :       3277.41       2431.83


 parallel 3D FFT for wavefunctions:
    minimum data exchange during FFTs selected (reduces bandwidth)
 parallel 3D FFT for charge:
    minimum data exchange during FFTs selected (reduces bandwidth)


 total amount of memory used by VASP MPI-rank0   256936. kBytes
=======================================================================

   base      :      30000. kBytes
   nonlr-proj:      13018. kBytes
   fftplans  :       6403. kBytes
   grid      :      16455. kBytes
   one-center:         93. kBytes
   wavefun   :     190967. kBytes
 
     INWAV:  cpu time    0.0010: real time    0.0001
 initial charge density was supplied:
 number of electron     580.0000044 magnetization     103.9525808
 keeping initial charge density in first step


--------------------------------------------------------------------------------------------------------


 Maximum index for non-local projection operator          762
 Maximum index for augmentation-charges         1123 (set IRDMAX)


--------------------------------------------------------------------------------------------------------


 First call to EWALD:  gamma=   0.144
 Maximum number of real-space cells 4x 4x 2
 Maximum number of reciprocal cells 2x 2x 4

    FEWALD:  cpu time    0.0030: real time    0.0050


--------------------------------------- Iteration      1(   1)  ---------------------------------------


    POTLOK:  cpu time    0.2490: real time    0.2537
    SETDIJ:  cpu time    0.0190: real time    0.0213
     EDDAV:  cpu time   97.7051: real time   98.3109
 BZINTS: Fermi energy: 10.852859;580.000000 electrons
         Band energy:3597.416202;  BLOECHL correction: -0.011208
       DOS:  cpu time    0.2040: real time    0.2032
    --------------------------------------------
      LOOP:  cpu time   98.1771: real time   98.7891

 eigenvalue-minimisations  : 32880
 total energy-change (2. order) : 0.4477683E+04  (-0.2490136E+05)
 number of electron     580.0000044 magnetization     103.9525808
 augmentation part      580.0000044 magnetization     103.9525808

 DIPCOR: dipole corrections for dipol
 direction  3 min pos   250,
 dipolmoment           0.000000      0.000000     -0.011619 electrons x Angstroem
 Tr[quadrupol]    -10073.762165

 energy correction for charged system         0.000000 eV
 dipol+quadrupol energy correction           -0.000007 eV
 added-field ion interaction         -0.503615 eV  (added to PSCEN)


 Free energy of the ion-electron system (eV)
  ---------------------------------------------------
  alpha Z        PSCENC =      1335.70934052
  Ewald energy   TEWEN  =    188215.90441694
  -Hartree energ DENC   =   -241716.66145703
  -exchange      EXHF   =         0.00000000
  -V(xc)+E(xc)   XCENC  =      1173.10811140
  PAW double counting   =     58897.63473185   -61495.62043978
  entropy T*S    EENTRO =         0.00000000
  eigenvalues    EBANDS =      3597.41620193
  atomic energy  EATOM  =     54470.19168079
  Solvation  Ediel_sol  =         0.00000000
  ---------------------------------------------------
  free energy    TOTEN  =      4477.68258662 eV

  energy without entropy =     4477.68258662  energy(sigma->0) =     4477.68258662


--------------------------------------------------------------------------------------------------------




--------------------------------------- Iteration      1(   2)  ---------------------------------------


     EDDAV:  cpu time   98.0031: real time   98.2890
 BZINTS: Fermi energy:  1.206162;580.000000 electrons
         Band energy:-862.334233;  BLOECHL correction: -0.007198
       DOS:  cpu time    0.1950: real time    0.1950
    --------------------------------------------
      LOOP:  cpu time   98.1981: real time   98.4840

 eigenvalue-minimisations  : 32880
 total energy-change (2. order) :-0.4459750E+04  (-0.4177343E+04)
 number of electron     580.0000044 magnetization     103.9525808
 augmentation part      580.0000044 magnetization     103.9525808

 DIPCOR: dipole corrections for dipol
 direction  3 min pos   250,
 dipolmoment           0.000000      0.000000     -0.011619 electrons x Angstroem
 Tr[quadrupol]    -10073.762165

 energy correction for charged system         0.000000 eV
 dipol+quadrupol energy correction           -0.000007 eV
 added-field ion interaction         -0.503615 eV  (added to PSCEN)


 Free energy of the ion-electron system (eV)
  ---------------------------------------------------
  alpha Z        PSCENC =      1335.70934052
  Ewald energy   TEWEN  =    188215.90441694
  -Hartree energ DENC   =   -241716.66145703
  -exchange      EXHF   =         0.00000000
  -V(xc)+E(xc)   XCENC  =      1173.10811140
  PAW double counting   =     58897.63473185   -61495.62043978
  entropy T*S    EENTRO =         0.00000000
  eigenvalues    EBANDS =      -862.33423295
  atomic energy  EATOM  =     54470.19168079
  Solvation  Ediel_sol  =         0.00000000
  ---------------------------------------------------
  free energy    TOTEN  =        17.93215175 eV

  energy without entropy =       17.93215175  energy(sigma->0) =       17.93215175


--------------------------------------------------------------------------------------------------------




--------------------------------------- Iteration      1(   3)  ---------------------------------------


     EDDAV:  cpu time  100.4787: real time  100.7954
 BZINTS: Fermi energy:  0.078912;580.000000 electrons
         Band energy:***********;  BLOECHL correction: -0.129286
       DOS:  cpu time    0.1890: real time    0.1888
    --------------------------------------------
      LOOP:  cpu time  100.6677: real time  100.9842

 eigenvalue-minimisations  : 34095
 total energy-change (2. order) :-0.4130043E+03  (-0.3540823E+03)
 number of electron     580.0000044 magnetization     103.9525808
 augmentation part      580.0000044 magnetization     103.9525808

 DIPCOR: dipole corrections for dipol
 direction  3 min pos   250,
 dipolmoment           0.000000      0.000000     -0.011619 electrons x Angstroem
 Tr[quadrupol]    -10073.762165

 energy correction for charged system         0.000000 eV
 dipol+quadrupol energy correction           -0.000007 eV
 added-field ion interaction         -0.503615 eV  (added to PSCEN)


 Free energy of the ion-electron system (eV)
  ---------------------------------------------------
  alpha Z        PSCENC =      1335.70934052
  Ewald energy   TEWEN  =    188215.90441694
  -Hartree energ DENC   =   -241716.66145703
  -exchange      EXHF   =         0.00000000
  -V(xc)+E(xc)   XCENC  =      1173.10811140
  PAW double counting   =     58897.63473185   -61495.62043978
  entropy T*S    EENTRO =         0.00000000
  eigenvalues    EBANDS =     -1275.33853904
  atomic energy  EATOM  =     54470.19168079
  Solvation  Ediel_sol  =         0.00000000
  ---------------------------------------------------
  free energy    TOTEN  =      -395.07215434 eV

  energy without entropy =     -395.07215434  energy(sigma->0) =     -395.07215434


--------------------------------------------------------------------------------------------------------




--------------------------------------- Iteration      1(   4)  ---------------------------------------


     EDDAV:  cpu time  102.3374: real time  103.0194
 BZINTS: Fermi energy:  0.043239;580.000000 electrons
         Band energy:***********;  BLOECHL correction: -0.129054
       DOS:  cpu time    0.1780: real time    0.1962
    --------------------------------------------
      LOOP:  cpu time  102.5154: real time  103.2156

 eigenvalue-minimisations  : 35034
 total energy-change (2. order) :-0.1698984E+02  (-0.1663138E+02)
 number of electron     580.0000044 magnetization     103.9525808
 augmentation part      580.0000044 magnetization     103.9525808

 DIPCOR: dipole corrections for dipol
 direction  3 min pos   250,
 dipolmoment           0.000000      0.000000     -0.011619 electrons x Angstroem
 Tr[quadrupol]    -10073.762165

 energy correction for charged system         0.000000 eV
 dipol+quadrupol energy correction           -0.000007 eV
 added-field ion interaction         -0.503615 eV  (added to PSCEN)


 Free energy of the ion-electron system (eV)
  ---------------------------------------------------
  alpha Z        PSCENC =      1335.70934052
  Ewald energy   TEWEN  =    188215.90441694
  -Hartree energ DENC   =   -241716.66145703
  -exchange      EXHF   =         0.00000000
  -V(xc)+E(xc)   XCENC  =      1173.10811140
  PAW double counting   =     58897.63473185   -61495.62043978
  entropy T*S    EENTRO =         0.00000000
  eigenvalues    EBANDS =     -1292.32837845
  atomic energy  EATOM  =     54470.19168079
  Solvation  Ediel_sol  =         0.00000000
  ---------------------------------------------------
  free energy    TOTEN  =      -412.06199376 eV

  energy without entropy =     -412.06199376  energy(sigma->0) =     -412.06199376


--------------------------------------------------------------------------------------------------------




--------------------------------------- Iteration      1(   5)  ---------------------------------------


     EDDAV:  cpu time  109.3924: real time  109.7414
 BZINTS: Fermi energy:  0.042550;580.000000 electrons
         Band energy:***********;  BLOECHL correction: -0.129035
       DOS:  cpu time    0.1760: real time    0.1762
    --------------------------------------------
      LOOP:  cpu time  109.5683: real time  109.9176

 eigenvalue-minimisations  : 37905
 total energy-change (2. order) :-0.3146040E+00  (-0.3143383E+00)
 number of electron     580.0000044 magnetization     103.9525808
 augmentation part      580.0000044 magnetization     103.9525808

 DIPCOR: dipole corrections for dipol
 direction  3 min pos   250,
 dipolmoment           0.000000      0.000000     -0.011619 electrons x Angstroem
 Tr[quadrupol]    -10073.762165

 energy correction for charged system         0.000000 eV
 dipol+quadrupol energy correction           -0.000007 eV
 added-field ion interaction         -0.503615 eV  (added to PSCEN)


 Free energy of the ion-electron system (eV)
  ---------------------------------------------------
  alpha Z        PSCENC =      1335.70934052
  Ewald energy   TEWEN  =    188215.90441694
  -Hartree energ DENC   =   -241716.66145703
  -exchange      EXHF   =         0.00000000
  -V(xc)+E(xc)   XCENC  =      1173.10811140
  PAW double counting   =     58897.63473185   -61495.62043978
  entropy T*S    EENTRO =         0.00000000
  eigenvalues    EBANDS =     -1292.64298244
  atomic energy  EATOM  =     54470.19168079
  Solvation  Ediel_sol  =         0.00000000
  ---------------------------------------------------
  free energy    TOTEN  =      -412.37659775 eV

  energy without entropy =     -412.37659775  energy(sigma->0) =     -412.37659775


--------------------------------------------------------------------------------------------------------




--------------------------------------- Iteration      1(   6)  ---------------------------------------


    EDDIAG:  cpu time   14.5938: real time   14.6148
  RMM-DIIS:  cpu time   62.4835: real time   62.6363
    ORTHCH:  cpu time    2.6376: real time    2.6425
 BZINTS: Fermi energy:  0.042518;580.000000 electrons
         Band energy:***********;  BLOECHL correction: -0.129030
       DOS:  cpu time    0.1830: real time    0.1835
    --------------------------------------------
      LOOP:  cpu time   79.8979: real time   80.0771

 eigenvalue-minimisations  : 34169
 total energy-change (2. order) :-0.1113542E-01  (-0.1113062E-01)
 number of electron     580.0000044 magnetization     103.9525808
 augmentation part      580.0000044 magnetization     103.9525808

 DIPCOR: dipole corrections for dipol
 direction  3 min pos   250,
 dipolmoment           0.000000      0.000000     -0.011619 electrons x Angstroem
 Tr[quadrupol]    -10073.762165

 energy correction for charged system         0.000000 eV
 dipol+quadrupol energy correction           -0.000007 eV
 added-field ion interaction         -0.503615 eV  (added to PSCEN)


 Free energy of the ion-electron system (eV)
  ---------------------------------------------------
  alpha Z        PSCENC =      1335.70934052
  Ewald energy   TEWEN  =    188215.90441694
  -Hartree energ DENC   =   -241716.66145703
  -exchange      EXHF   =         0.00000000
  -V(xc)+E(xc)   XCENC  =      1173.10811140
  PAW double counting   =     58897.63473185   -61495.62043978
  entropy T*S    EENTRO =         0.00000000
  eigenvalues    EBANDS =     -1292.65411786
  atomic energy  EATOM  =     54470.19168079
  Solvation  Ediel_sol  =         0.00000000
  ---------------------------------------------------
  free energy    TOTEN  =      -412.38773316 eV

  energy without entropy =     -412.38773316  energy(sigma->0) =     -412.38773316


--------------------------------------------------------------------------------------------------------




--------------------------------------- Iteration      1(   7)  ---------------------------------------


    EDDIAG:  cpu time   14.7528: real time   14.7844
  RMM-DIIS:  cpu time   89.7134: real time   90.1093
    ORTHCH:  cpu time    2.5926: real time    2.5974
 BZINTS: Fermi energy:  0.042510;580.000000 electrons
         Band energy:***********;  BLOECHL correction: -0.129028
       DOS:  cpu time    0.1820: real time    0.1821
    --------------------------------------------
      LOOP:  cpu time  107.2407: real time  107.6731

 eigenvalue-minimisations  : 50161
 total energy-change (2. order) :-0.3426388E-02  (-0.3417348E-02)
 number of electron     580.0000044 magnetization     103.9525808
 augmentation part      580.0000044 magnetization     103.9525808

 DIPCOR: dipole corrections for dipol
 direction  3 min pos   250,
 dipolmoment           0.000000      0.000000     -0.011619 electrons x Angstroem
 Tr[quadrupol]    -10073.762165

 energy correction for charged system         0.000000 eV
 dipol+quadrupol energy correction           -0.000007 eV
 added-field ion interaction         -0.503615 eV  (added to PSCEN)


 Free energy of the ion-electron system (eV)
  ---------------------------------------------------
  alpha Z        PSCENC =      1335.70934052
  Ewald energy   TEWEN  =    188215.90441694
  -Hartree energ DENC   =   -241716.66145703
  -exchange      EXHF   =         0.00000000
  -V(xc)+E(xc)   XCENC  =      1173.10811140
  PAW double counting   =     58897.63473185   -61495.62043978
  entropy T*S    EENTRO =         0.00000000
  eigenvalues    EBANDS =     -1292.65754424
  atomic energy  EATOM  =     54470.19168079
  Solvation  Ediel_sol  =         0.00000000
  ---------------------------------------------------
  free energy    TOTEN  =      -412.39115955 eV

  energy without entropy =     -412.39115955  energy(sigma->0) =     -412.39115955


--------------------------------------------------------------------------------------------------------




--------------------------------------- Iteration      1(   8)  ---------------------------------------


    EDDIAG:  cpu time   14.7398: real time   14.7983
  RMM-DIIS:  cpu time   84.6631: real time   85.2311
    ORTHCH:  cpu time    2.6296: real time    2.6387
 BZINTS: Fermi energy:  0.042510;580.000000 electrons
         Band energy:***********;  BLOECHL correction: -0.129028
       DOS:  cpu time    0.1760: real time    0.1770
    --------------------------------------------
      LOOP:  cpu time  102.2095: real time  102.8452

 eigenvalue-minimisations  : 46762
 total energy-change (2. order) :-0.6888926E-04  (-0.7239704E-04)
 number of electron     580.0000044 magnetization     103.9525808
 augmentation part      580.0000044 magnetization     103.9525808

 DIPCOR: dipole corrections for dipol
 direction  3 min pos   250,
 dipolmoment           0.000000      0.000000     -0.011619 electrons x Angstroem
 Tr[quadrupol]    -10073.762165

 energy correction for charged system         0.000000 eV
 dipol+quadrupol energy correction           -0.000007 eV
 added-field ion interaction         -0.503615 eV  (added to PSCEN)


 Free energy of the ion-electron system (eV)
  ---------------------------------------------------
  alpha Z        PSCENC =      1335.70934052
  Ewald energy   TEWEN  =    188215.90441694
  -Hartree energ DENC   =   -241716.66145703
  -exchange      EXHF   =         0.00000000
  -V(xc)+E(xc)   XCENC  =      1173.10811140
  PAW double counting   =     58897.63473185   -61495.62043978
  entropy T*S    EENTRO =         0.00000000
  eigenvalues    EBANDS =     -1292.65761313
  atomic energy  EATOM  =     54470.19168079
  Solvation  Ediel_sol  =         0.00000000
  ---------------------------------------------------
  free energy    TOTEN  =      -412.39122844 eV

  energy without entropy =     -412.39122844  energy(sigma->0) =     -412.39122844


--------------------------------------------------------------------------------------------------------




--------------------------------------- Iteration      1(   9)  ---------------------------------------


    EDDIAG:  cpu time   14.6498: real time   14.6743
  RMM-DIIS:  cpu time   62.4475: real time   62.5770
    ORTHCH:  cpu time    2.6726: real time    2.6766
 BZINTS: Fermi energy:  0.042510;580.000000 electrons
         Band energy:***********;  BLOECHL correction: -0.129028
       DOS:  cpu time    0.1730: real time    0.1729
    --------------------------------------------
      LOOP:  cpu time   79.9418: real time   80.1008

 eigenvalue-minimisations  : 34531
 total energy-change (2. order) :-0.2585971E-04  (-0.2560697E-04)
 number of electron     580.0000044 magnetization     103.9525808
 augmentation part      580.0000044 magnetization     103.9525808

 DIPCOR: dipole corrections for dipol
 direction  3 min pos   250,
 dipolmoment           0.000000      0.000000     -0.011619 electrons x Angstroem
 Tr[quadrupol]    -10073.762165

 energy correction for charged system         0.000000 eV
 dipol+quadrupol energy correction           -0.000007 eV
 added-field ion interaction         -0.503615 eV  (added to PSCEN)


 Free energy of the ion-electron system (eV)
  ---------------------------------------------------
  alpha Z        PSCENC =      1335.70934052
  Ewald energy   TEWEN  =    188215.90441694
  -Hartree energ DENC   =   -241716.66145703
  -exchange      EXHF   =         0.00000000
  -V(xc)+E(xc)   XCENC  =      1173.10811140
  PAW double counting   =     58897.63473185   -61495.62043978
  entropy T*S    EENTRO =         0.00000000
  eigenvalues    EBANDS =     -1292.65763899
  atomic energy  EATOM  =     54470.19168079
  Solvation  Ediel_sol  =         0.00000000
  ---------------------------------------------------
  free energy    TOTEN  =      -412.39125430 eV

  energy without entropy =     -412.39125430  energy(sigma->0) =     -412.39125430


--------------------------------------------------------------------------------------------------------




--------------------------------------- Iteration      1(  10)  ---------------------------------------


    EDDIAG:  cpu time   14.9687: real time   14.9845
  RMM-DIIS:  cpu time   43.7783: real time   43.8831
    ORTHCH:  cpu time    2.5716: real time    2.5749
 BZINTS: Fermi energy:  0.042510;580.000000 electrons
         Band energy:***********;  BLOECHL correction: -0.129028
       DOS:  cpu time    0.1680: real time    0.1682
    --------------------------------------------
      LOOP:  cpu time   61.4867: real time   61.6107

 eigenvalue-minimisations  : 22749
 total energy-change (2. order) :-0.2279412E-05  (-0.1655227E-05)
 number of electron     580.0000044 magnetization     103.9525808
 augmentation part      580.0000044 magnetization     103.9525808

 DIPCOR: dipole corrections for dipol
 direction  3 min pos   250,
 dipolmoment           0.000000      0.000000     -0.011619 electrons x Angstroem
 Tr[quadrupol]    -10073.762165

 energy correction for charged system         0.000000 eV
 dipol+quadrupol energy correction           -0.000007 eV
 added-field ion interaction         -0.503615 eV  (added to PSCEN)


 Free energy of the ion-electron system (eV)
  ---------------------------------------------------
  alpha Z        PSCENC =      1335.70934052
  Ewald energy   TEWEN  =    188215.90441694
  -Hartree energ DENC   =   -241716.66145703
  -exchange      EXHF   =         0.00000000
  -V(xc)+E(xc)   XCENC  =      1173.10811140
  PAW double counting   =     58897.63473185   -61495.62043978
  entropy T*S    EENTRO =         0.00000000
  eigenvalues    EBANDS =     -1292.65764127
  atomic energy  EATOM  =     54470.19168079
  Solvation  Ediel_sol  =         0.00000000
  ---------------------------------------------------
  free energy    TOTEN  =      -412.39125658 eV

  energy without entropy =     -412.39125658  energy(sigma->0) =     -412.39125658


--------------------------------------------------------------------------------------------------------




--------------------------------------- Iteration      1(  11)  ---------------------------------------


    EDDIAG:  cpu time   14.5978: real time   14.6325
  RMM-DIIS:  cpu time   40.7938: real time   40.9005
    ORTHCH:  cpu time    2.6496: real time    2.6531
 BZINTS: Fermi energy:  0.042510;580.000000 electrons
         Band energy:***********;  BLOECHL correction: -0.129028
       DOS:  cpu time    0.1800: real time    0.1803
    --------------------------------------------
      LOOP:  cpu time   58.2211: real time   58.3664

 eigenvalue-minimisations  : 21201
 total energy-change (2. order) :-0.8492207E-06  (-0.8216358E-06)
 number of electron     580.0000044 magnetization     103.9525808
 augmentation part      580.0000044 magnetization     103.9525808

 DIPCOR: dipole corrections for dipol
 direction  3 min pos   250,
 dipolmoment           0.000000      0.000000     -0.011619 electrons x Angstroem
 Tr[quadrupol]    -10073.762165

 energy correction for charged system         0.000000 eV
 dipol+quadrupol energy correction           -0.000007 eV
 added-field ion interaction         -0.503615 eV  (added to PSCEN)


 Free energy of the ion-electron system (eV)
  ---------------------------------------------------
  alpha Z        PSCENC =      1335.70934052
  Ewald energy   TEWEN  =    188215.90441694
  -Hartree energ DENC   =   -241716.66145703
  -exchange      EXHF   =         0.00000000
  -V(xc)+E(xc)   XCENC  =      1173.10811140
  PAW double counting   =     58897.63473185   -61495.62043978
  entropy T*S    EENTRO =         0.00000000
  eigenvalues    EBANDS =     -1292.65764212
  atomic energy  EATOM  =     54470.19168079
  Solvation  Ediel_sol  =         0.00000000
  ---------------------------------------------------
  free energy    TOTEN  =      -412.39125743 eV

  energy without entropy =     -412.39125743  energy(sigma->0) =     -412.39125743


--------------------------------------------------------------------------------------------------------




 average (electrostatic) potential at core
  the test charge radii are     0.9791  1.0103
  (the norm of the test charge is              1.0000)
       1 -91.1317       2 -91.1419       3 -91.1152       4 -91.0751       5 -91.1657
       6 -91.1512       7 -91.1237       8 -91.1729       9 -91.1369      10 -91.1886
      11 -91.4197      12 -91.0651      13 -91.1170      14 -91.4308      15 -91.3891
      16 -91.3923      17 -91.0467      18 -91.1769      19 -91.1101      20 -91.1383
      21 -91.4391      22 -91.4897      23 -91.3293      24 -91.3542      25 -91.1370
      26 -91.0630      27 -91.3540      28 -91.1131      29 -91.1045      30 -91.4481
      31 -91.2854      32 -91.3413      33 -91.3823      34 -91.2734      35 -49.4095
      36 -49.4340      37 -49.3199      38 -49.5136      39 -49.5811      40 -49.5513
      41 -49.4219      42 -49.3675      43 -49.3232      44 -49.3502      45 -49.4103
      46 -49.3739      47 -49.3681      48 -49.2975      49 -49.3477      50 -49.5318
      51 -49.3946      52 -49.4653      53 -49.2773      54 -49.3294      55 -49.2290
      56 -49.3584      57 -49.1467      58 -49.4085      59 -49.3152      60 -49.4069
      61 -49.3945      62 -49.2427      63 -49.2740      64 -49.2380
 
 
 
 E-fermi :   0.0425     XC(G=0):  -5.9316     alpha+bet : -5.7208


 spin component 1

 k-point     1 :       0.0000    0.0000    0.0000
  band No.  band energies     occupation 
      1      -8.3229      1.00000
      2      -7.0581      1.00000
      3      -6.5175      1.00000
      4      -6.4841      1.00000
      5      -6.4483      1.00000
      6      -6.3988      1.00000
      7      -6.3563      1.00000
      8      -6.3388      1.00000
      9      -5.5380      1.00000
     10      -5.4797      1.00000
     11      -5.4580      1.00000
     12      -5.4217      1.00000
     13      -5.4114      1.00000
     14      -5.3731      1.00000
     15      -5.3316      1.00000
     16      -5.0083      1.00000
     17      -4.8582      1.00000
     18      -4.7978      1.00000
     19      -4.7636      1.00000
     20      -4.7555      1.00000
     21      -4.7292      1.00000
     22      -4.6932      1.00000
     23      -4.4282      1.00000
     24      -4.3795      1.00000
     25      -4.3672      1.00000
     26      -4.3586      1.00000
     27      -4.3453      1.00000
     28      -4.3278      1.00000
     29      -4.3086      1.00000
     30      -4.2900      1.00000
     31      -4.2884      1.00000
     32      -4.2813      1.00000
     33      -4.2690      1.00000
     34      -4.2589      1.00000
     35      -4.2485      1.00000
     36      -4.2437      1.00000
     37      -4.2160      1.00000
     38      -4.2101      1.00000
     39      -4.1999      1.00000
     40      -4.1961      1.00000
     41      -4.1838      1.00000
     42      -4.1636      1.00000
     43      -4.1551      1.00000
     44      -4.1447      1.00000
     45      -4.1279      1.00000
     46      -4.1141      1.00000
     47      -4.0880      1.00000
     48      -4.0805      1.00000
     49      -4.0665      1.00000
     50      -4.0557      1.00000
     51      -4.0353      1.00000
     52      -4.0184      1.00000
     53      -4.0015      1.00000
     54      -3.9956      1.00000
     55      -3.9881      1.00000
     56      -3.9717      1.00000
     57      -3.9668      1.00000
     58      -3.9448      1.00000
     59      -3.9323      1.00000
     60      -3.9200      1.00000
     61      -3.8860      1.00000
     62      -3.7546      1.00000
     63      -3.7381      1.00000
     64      -3.7236      1.00000
     65      -3.7041      1.00000
     66      -3.6776      1.00000
     67      -3.6620      1.00000
     68      -3.6439      1.00000
     69      -3.6278      1.00000
     70      -3.6115      1.00000
     71      -3.6057      1.00000
     72      -3.5930      1.00000
     73      -3.5670      1.00000
     74      -3.5583      1.00000
     75      -3.5530      1.00000
     76      -3.5451      1.00000
     77      -3.5430      1.00000
     78      -3.5388      1.00000
     79      -3.5159      1.00000
     80      -3.4937      1.00000
     81      -3.4791      1.00000
     82      -3.4431      1.00000
     83      -3.3516      1.00000
     84      -3.3404      1.00000
     85      -3.3257      1.00000
     86      -3.3043      1.00000
     87      -3.2787      1.00000
     88      -3.2703      1.00000
     89      -3.2659      1.00000
     90      -3.2505      1.00000
     91      -3.2366      1.00000
     92      -3.2273      1.00000
     93      -3.2053      1.00000
     94      -3.2002      1.00000
     95      -3.1748      1.00000
     96      -3.1631      1.00000
     97      -3.1439      1.00000
     98      -3.1415      1.00000
     99      -3.1162      1.00000
    100      -3.1124      1.00000
    101      -3.0994      1.00000
    102      -3.0970      1.00000
    103      -3.0782      1.00000
    104      -3.0610      1.00000
    105      -3.0371      1.00000
    106      -3.0296      1.00000
    107      -3.0225      1.00000
    108      -3.0014      1.00000
    109      -2.9843      1.00000
    110      -2.9769      1.00000
    111      -2.9528      1.00000
    112      -2.9246      1.00000
    113      -2.8653      1.00000
    114      -2.8517      1.00000
    115      -2.8344      1.00000
    116      -2.8289      1.00000
    117      -2.8168      1.00000
    118      -2.8026      1.00000
    119      -2.7800      1.00000
    120      -2.7655      1.00000
    121      -2.7559      1.00000
    122      -2.7484      1.00000
    123      -2.7398      1.00000
    124      -2.7314      1.00000
    125      -2.7103      1.00000
    126      -2.6995      1.00000
    127      -2.6934      1.00000
    128      -2.6806      1.00000
    129      -2.6728      1.00000
    130      -2.6630      1.00000
    131      -2.6418      1.00000
    132      -2.6341      1.00000
    133      -2.5991      1.00000
    134      -2.5819      1.00000
    135      -2.5715      1.00000
    136      -2.5563      1.00000
    137      -2.5446      1.00000
    138      -2.5324      1.00000
    139      -2.5248      1.00000
    140      -2.5130      1.00000
    141      -2.5121      1.00000
    142      -2.4994      1.00000
    143      -2.4964      1.00000
    144      -2.4861      1.00000
    145      -2.4758      1.00000
    146      -2.4656      1.00000
    147      -2.4575      1.00000
    148      -2.4482      1.00000
    149      -2.4461      1.00000
    150      -2.4426      1.00000
    151      -2.4302      1.00000
    152      -2.4148      1.00000
    153      -2.4087      1.00000
    154      -2.4019      1.00000
    155      -2.3952      1.00000
    156      -2.3882      1.00000
    157      -2.3788      1.00000
    158      -2.3661      1.00000
    159      -2.3606      1.00000
    160      -2.3543      1.00000
    161      -2.3508      1.00000
    162      -2.3344      1.00000
    163      -2.3248      1.00000
    164      -2.3070      1.00000
    165      -2.3040      1.00000
    166      -2.2843      1.00000
    167      -2.2786      1.00000
    168      -2.2632      1.00000
    169      -2.2569      1.00000
    170      -2.2478      1.00000
    171      -2.2473      1.00000
    172      -2.2401      1.00000
    173      -2.2248      1.00000
    174      -2.2177      1.00000
    175      -2.2127      1.00000
    176      -2.2100      1.00000
    177      -2.1983      1.00000
    178      -2.1929      1.00000
    179      -2.1863      1.00000
    180      -2.1793      1.00000
    181      -2.1696      1.00000
    182      -2.1644      1.00000
    183      -2.1612      1.00000
    184      -2.1552      1.00000
    185      -2.1484      1.00000
    186      -2.1465      1.00000
    187      -2.1403      1.00000
    188      -2.1328      1.00000
    189      -2.1245      1.00000
    190      -2.1152      1.00000
    191      -2.1036      1.00000
    192      -2.0950      1.00000
    193      -2.0920      1.00000
    194      -2.0777      1.00000
    195      -2.0715      1.00000
    196      -2.0637      1.00000
    197      -2.0461      1.00000
    198      -2.0441      1.00000
    199      -2.0393      1.00000
    200      -2.0153      1.00000
    201      -2.0120      1.00000
    202      -1.9268      1.00000
    203      -1.9162      1.00000
    204      -1.8981      1.00000
    205      -1.8782      1.00000
    206      -1.8664      1.00000
    207      -1.8577      1.00000
    208      -1.8541      1.00000
    209      -1.8467      1.00000
    210      -1.8384      1.00000
    211      -1.8296      1.00000
    212      -1.8238      1.00000
    213      -1.8036      1.00000
    214      -1.7934      1.00000
    215      -1.7775      1.00000
    216      -1.7720      1.00000
    217      -1.7624      1.00000
    218      -1.7303      1.00000
    219      -1.7280      1.00000
    220      -1.7092      1.00000
    221      -1.6959      1.00000
    222      -1.6870      1.00000
    223      -1.6816      1.00000
    224      -1.6686      1.00000
    225      -1.6577      1.00000
    226      -1.6469      1.00000
    227      -1.6404      1.00000
    228      -1.6320      1.00000
    229      -1.6215      1.00000
    230      -1.6115      1.00000
    231      -1.5788      1.00000
    232      -1.5371      1.00000
    233      -1.5113      1.00000
    234      -1.4968      1.00000
    235      -1.4865      1.00000
    236      -1.4779      1.00000
    237      -1.4702      1.00000
    238      -1.4597      1.00000
    239      -1.4581      1.00000
    240      -1.4519      1.00000
    241      -1.4415      1.00000
    242      -1.4374      1.00000
    243      -1.4269      1.00000
    244      -1.4186      1.00000
    245      -1.4158      1.00000
    246      -1.4062      1.00000
    247      -1.4044      1.00000
    248      -1.3879      1.00000
    249      -1.3854      1.00000
    250      -1.3797      1.00000
    251      -1.3711      1.00000
    252      -1.3677      1.00000
    253      -1.3643      1.00000
    254      -1.3462      1.00000
    255      -1.3362      1.00000
    256      -1.3242      1.00000
    257      -1.3182      1.00000
    258      -1.2985      1.00000
    259      -1.2958      1.00000
    260      -1.2864      1.00000
    261      -1.2778      1.00000
    262      -1.2739      1.00000
    263      -1.2676      1.00000
    264      -1.2568      1.00000
    265      -1.2507      1.00000
    266      -1.2459      1.00000
    267      -1.2393      1.00000
    268      -1.2297      1.00000
    269      -1.2194      1.00000
    270      -1.2130      1.00000
    271      -1.2035      1.00000
    272      -1.1969      1.00000
    273      -1.1918      1.00000
    274      -1.1774      1.00000
    275      -1.1667      1.00000
    276      -1.1584      1.00000
    277      -1.1542      1.00000
    278      -1.1534      1.00000
    279      -1.1344      1.00000
    280      -1.1280      1.00000
    281      -1.1117      1.00000
    282      -1.1097      1.00000
    283      -1.0682      1.00000
    284      -1.0097      1.00000
    285      -1.0022      1.00000
    286      -0.9928      1.00000
    287      -0.9779      1.00000
    288      -0.9671      1.00000
    289      -0.9592      1.00000
    290      -0.9448      1.00000
    291      -0.9272      1.00000
    292      -0.8915      1.00000
    293      -0.8845      1.00000
    294      -0.8607      1.00000
    295      -0.8494      1.00000
    296      -0.8446      1.00000
    297      -0.8290      1.00000
    298      -0.8132      1.00000
    299      -0.8081      1.00000
    300      -0.7986      1.00000
    301      -0.7947      1.00000
    302      -0.7820      1.00000
    303      -0.7789      1.00000
    304      -0.7489      1.00000
    305      -0.7365      1.00000
    306      -0.7335      1.00000
    307      -0.7126      1.00000
    308      -0.7037      1.00000
    309      -0.6961      1.00000
    310      -0.6853      1.00000
    311      -0.6810      1.00000
    312      -0.6730      1.00000
    313      -0.6652      1.00000
    314      -0.6596      1.00000
    315      -0.6507      1.00000
    316      -0.6451      1.00000
    317      -0.6396      1.00000
    318      -0.6354      1.00000
    319      -0.6265      1.00000
    320      -0.6172      1.00000
    321      -0.6079      1.00000
    322      -0.5768      1.00000
    323      -0.5602      1.00000
    324      -0.5506      1.00000
    325      -0.5197      1.00000
    326      -0.5117      1.00000
    327      -0.5018      1.00000
    328      -0.4943      1.00000
    329      -0.4874      1.00000
    330      -0.4776      1.00000
    331      -0.4631      1.00000
    332      -0.4559      1.00000
    333      -0.4511      1.00000
    334      -0.4171      1.00000
    335      -0.4147      1.00000
    336      -0.3971      1.00000
    337      -0.2243      1.00000
    338      -0.1923      1.00000
    339      -0.1751      1.00000
    340      -0.1487      1.00000
    341      -0.1363      0.95887
    342      -0.1299      0.87622
    343       0.1730      0.00000
    344       0.5734      0.00000
    345       0.5904      0.00000
    346       0.6005      0.00000
    347       1.0900      0.00000
    348       1.1083      0.00000
    349       1.1187      0.00000
    350       1.1441      0.00000
    351       1.1669      0.00000
    352       1.1828      0.00000
    353       1.6268      0.00000
    354       1.6403      0.00000
    355       1.6548      0.00000
    356       1.6767      0.00000
    357       1.6859      0.00000
    358       1.7037      0.00000
    359       1.7205      0.00000
    360       1.7507      0.00000
    361       1.7673      0.00000
    362       1.8094      0.00000
    363       1.8268      0.00000
    364       1.8440      0.00000
    365       1.8635      0.00000
    366       1.8764      0.00000
    367       1.8945      0.00000
    368       2.4747      0.00000
    369       2.4954      0.00000
    370       2.5226      0.00000
    371       2.5716      0.00000
    372       2.6027      0.00000
    373       2.6145      0.00000
    374       3.0413      0.00000
    375       3.0514      0.00000
    376       3.0802      0.00000
    377       3.0929      0.00000
    378       3.1167      0.00000
    379       3.1350      0.00000
    380       3.5574      0.00000
    381       3.6135      0.00000
    382       3.6309      0.00000
    383       3.7033      0.00000
    384       3.7220      0.00000
    385       3.7380      0.00000
    386       4.6508      0.00000
    387       4.6848      0.00000
    388       5.1638      0.00000
    389       5.2153      0.00000
    390       5.2309      0.00000
    391       5.2646      0.00000
    392       5.2882      0.00000
    393       5.3153      0.00000
    394       6.0464      0.00000
    395       6.0607      0.00000
    396       6.0686      0.00000
    397       6.1070      0.00000
    398       6.3458      0.00000
    399       6.3569      0.00000
    400       6.3907      0.00000
[...]
   -.104E+03 -.380E+02 0.271E+04   0.104E+03 0.382E+02 -.271E+04   -.240E+00 0.772E-01 -.118E+01   0.178E+00 -.216E+00 0.947E+00
   -.823E+02 -.233E+02 -.272E+04   0.823E+02 0.235E+02 0.271E+04   -.292E+00 -.241E+00 0.877E+00   0.318E+00 0.360E-01 -.629E-01
   0.811E+02 -.278E+01 0.273E+04   -.815E+02 0.297E+01 -.273E+04   0.243E+00 0.913E-01 -.121E+01   0.142E+00 -.273E+00 0.810E+00
   0.937E+02 0.311E+02 -.272E+04   -.939E+02 -.312E+02 0.272E+04   0.520E+00 0.241E+00 0.153E+01   -.359E+00 -.923E-01 0.161E+00
   0.871E+02 -.565E+02 0.921E+03   -.872E+02 0.569E+02 -.924E+03   0.159E+00 -.295E+00 -.439E+00   -.628E-01 -.548E-01 0.286E+01
   0.526E+02 -.566E+02 -.884E+03   -.524E+02 0.568E+02 0.882E+03   -.468E-01 -.186E+00 0.192E+00   -.154E+00 -.263E-01 0.124E+01
   0.562E+01 0.487E+01 0.881E+03   -.578E+01 -.470E+01 -.883E+03   -.433E-01 0.177E-01 -.318E+00   0.211E+00 -.210E+00 0.271E+01
   -.993E+02 0.159E+02 -.850E+03   0.992E+02 -.157E+02 0.849E+03   -.198E+00 -.736E-01 0.229E+00   0.333E+00 -.122E+00 0.748E+00
   -.155E+02 -.182E+02 0.269E+04   0.153E+02 0.183E+02 -.269E+04   0.372E-01 -.249E-01 -.157E+01   0.836E-01 -.112E-02 0.949E+00
   -.110E+02 -.154E+02 -.272E+04   0.108E+02 0.153E+02 0.272E+04   0.491E-01 -.780E-01 0.129E+01   0.139E+00 0.150E+00 -.783E-01
   -.109E+03 -.325E+02 0.922E+03   0.109E+03 0.326E+02 -.925E+03   -.228E+00 -.109E+00 -.459E+00   0.345E+00 0.594E-01 0.290E+01
   0.135E+03 -.730E+01 0.265E+04   -.136E+03 0.701E+01 -.265E+04   0.613E+00 -.290E-02 -.162E+01   -.156E+00 0.152E+00 0.981E+00
   0.116E+03 -.516E+01 -.268E+04   -.116E+03 0.506E+01 0.267E+04   0.678E+00 0.128E+00 0.114E+01   -.349E+00 -.118E-01 -.462E-01
   0.126E+02 -.967E+01 -.882E+03   -.124E+02 0.963E+01 0.881E+03   -.102E+00 -.324E-01 0.507E+00   -.144E+00 0.956E-01 0.103E+01
   0.219E+02 -.935E+00 -.839E+03   -.222E+02 0.825E+00 0.837E+03   0.133E+00 -.412E-01 0.329E+00   0.178E+00 0.140E+00 0.886E+00
   -.392E+02 -.828E+01 -.809E+03   0.390E+02 0.810E+01 0.807E+03   -.786E-03 0.172E-01 0.299E+00   0.232E+00 0.167E+00 0.999E+00
   -.666E+02 0.828E+02 -.858E+03   0.666E+02 -.830E+02 0.857E+03   -.386E-02 0.250E+00 0.469E+00   0.176E-02 -.253E-01 0.985E+00
   0.107E+03 -.561E+02 -.750E+03   -.107E+03 0.560E+02 0.749E+03   0.206E+00 -.628E-02 0.501E+00   -.109E+00 0.125E+00 0.901E+00
   0.209E+02 0.834E+02 0.212E+04   -.210E+02 -.837E+02 -.212E+04   0.276E+00 0.400E+00 -.287E+01   -.237E+00 0.645E-01 0.958E+00
   -.532E+01 0.543E+02 -.218E+04   0.529E+01 -.544E+02 0.217E+04   0.216E+00 0.308E+00 0.340E+01   -.166E+00 -.197E+00 -.912E-01
   0.627E-01 -.148E+02 0.699E+03   0.205E+00 0.146E+02 -.701E+03   -.145E+00 -.150E-02 -.103E+01   -.179E+00 0.106E+00 0.232E+01
   0.111E+02 -.228E+02 0.218E+04   -.112E+02 0.230E+02 -.218E+04   0.111E+00 0.116E+00 -.268E+01   0.224E+00 -.244E+00 0.662E+00
   0.233E+02 -.496E+02 -.220E+04   -.231E+02 0.498E+02 0.220E+04   -.120E+00 0.570E-02 0.291E+01   -.128E+00 -.153E+00 -.411E-01
   0.783E+02 -.457E+02 -.637E+03   -.788E+02 0.458E+02 0.636E+03   0.385E+00 -.951E-01 0.501E+00   0.147E+00 -.844E-02 0.849E+00
   0.202E+02 0.616E+02 0.750E+03   -.206E+02 -.615E+02 -.752E+03   0.204E+00 0.228E+00 -.291E+00   0.202E+00 -.268E+00 0.205E+01
   -.401E+02 0.292E+02 -.643E+03   0.402E+02 -.295E+02 0.642E+03   -.106E+00 0.301E+00 0.399E+00   -.565E-01 0.309E-01 0.690E+00
   -.635E+02 -.762E+02 0.210E+04   0.639E+02 0.770E+02 -.210E+04   -.342E+00 -.639E+00 -.262E+01   -.786E-01 -.856E-02 0.949E+00
   -.494E+02 -.397E+02 -.220E+04   0.496E+02 0.405E+02 0.220E+04   -.406E+00 -.885E+00 0.325E+01   0.199E+00 0.471E-01 -.771E-01
   -.153E+03 -.246E+02 0.706E+03   0.153E+03 0.248E+02 -.708E+03   -.651E+00 -.228E+00 -.521E+00   0.119E+00 -.270E-01 0.222E+01
   0.851E+02 -.457E+02 0.215E+04   -.852E+02 0.458E+02 -.215E+04   0.414E+00 -.103E+00 -.289E+01   -.155E+00 -.186E-01 0.787E+00
   0.400E+02 -.117E+02 -.216E+04   -.402E+02 0.121E+02 0.216E+04   0.299E+00 -.346E+00 0.236E+01   -.153E+00 -.283E-01 -.500E-01
   0.728E+02 -.669E+02 0.747E+03   -.730E+02 0.671E+02 -.749E+03   0.546E+00 -.436E+00 0.392E-01   -.233E+00 0.130E+00 0.234E+01
   -.139E+02 -.128E+02 -.655E+03   0.138E+02 0.127E+02 0.654E+03   0.112E+00 0.464E-01 0.713E+00   0.157E-01 0.103E+00 0.746E+00
   0.634E+02 0.648E+01 -.728E+03   -.634E+02 -.619E+01 0.727E+03   0.211E+00 -.858E-01 0.860E-01   -.149E+00 -.185E+00 0.801E+00
   -.118E+03 0.296E+02 0.213E+04   0.118E+03 -.299E+02 -.213E+04   -.518E+00 -.162E-01 -.246E+01   0.250E+00 0.545E-01 0.906E+00
   -.781E+02 0.397E+02 -.220E+04   0.785E+02 -.402E+02 0.220E+04   -.533E+00 0.336E+00 0.281E+01   0.183E+00 0.200E+00 -.149E+00
   0.162E+02 0.341E+02 0.210E+04   -.164E+02 -.347E+02 -.210E+04   0.375E+00 0.282E+00 -.282E+01   -.196E+00 0.173E+00 0.939E+00
   -.784E+01 0.188E+02 -.218E+04   0.763E+01 -.193E+02 0.218E+04   0.226E+00 0.442E+00 0.249E+01   -.232E-01 0.363E-01 -.164E+00
   -.600E+02 0.178E+02 0.753E+03   0.600E+02 -.178E+02 -.756E+03   -.108E+00 -.615E-01 0.328E+00   0.458E-01 0.197E-01 0.224E+01
   -.111E+03 0.175E+02 -.720E+03   0.112E+03 -.177E+02 0.720E+03   -.540E+00 0.115E+00 0.178E+00   0.229E+00 0.969E-01 0.671E+00
   0.616E+02 -.313E+02 0.745E+03   -.615E+02 0.313E+02 -.747E+03   0.127E+00 -.155E+00 -.635E+00   -.237E+00 0.180E+00 0.237E+01
   0.927E+02 -.652E+02 0.723E+03   -.930E+02 0.652E+02 -.725E+03   0.229E+00 -.213E+00 -.688E+00   -.792E-01 0.938E-01 0.233E+01
   0.787E+02 -.248E+02 -.670E+03   -.787E+02 0.248E+02 0.668E+03   0.247E+00 -.106E+00 0.482E+00   -.280E+00 0.125E+00 0.846E+00
   0.430E+02 -.395E+02 0.738E+03   -.434E+02 0.397E+02 -.740E+03   0.351E+00 -.166E+00 -.485E+00   0.743E-01 0.385E-01 0.247E+01
   -.598E+02 0.382E+02 0.754E+03   0.600E+02 -.384E+02 -.757E+03   -.405E+00 0.361E+00 -.212E+00   0.141E+00 -.950E-01 0.230E+01
   -.301E+02 0.939E+02 0.745E+03   0.306E+02 -.944E+02 -.747E+03   -.313E+00 0.487E+00 -.158E+00   -.426E-01 0.268E-01 0.217E+01
   0.464E+02 0.138E+02 0.713E+03   -.465E+02 -.140E+02 -.715E+03   0.289E+00 0.484E-01 -.653E+00   -.181E+00 0.759E-01 0.239E+01
   0.283E+01 0.187E+02 -.696E+03   -.261E+01 -.184E+02 0.694E+03   -.725E-01 -.266E+00 0.471E+00   -.124E+00 -.427E-01 0.748E+00
 -----------------------------------------------------------------------------------------------
   -.135E+01 0.168E-01 -.659E+02   -.413E-12 0.497E-13 0.568E-11   0.101E+01 0.133E+00 -.125E+01   0.337E+00 -.151E+00 0.669E+02
 
 
 POSITION                                       TOTAL-FORCE (eV/Angst)
 -----------------------------------------------------------------------------------
     10.08740      0.00562      2.00000         0.013536      0.021866      0.272304
      0.01723      0.00434      8.13200        -0.008066      0.003875      0.042178
     -2.53339      8.73512      2.03255        -0.089398     -0.089139      0.274141
     -2.53152      8.73768      8.15335         0.027137      0.013436     -0.002022
      5.03058      0.01686      2.02726         0.034542     -0.065175      0.382863
      0.03375      8.73175      8.13039        -0.009447     -0.007561      0.020216
      8.81557      2.19268      2.03016         0.119780     -0.086151      0.310575
     -1.26052      2.18519      8.15024        -0.005873      0.001983      0.007040
      1.26036      2.17683      2.01409        -0.192681      0.101534      0.295236
      1.24957      2.19248      8.17598        -0.007558      0.028334      0.011025
      2.54422      1.44455      4.08529         0.039020      0.053577     -0.087626
      6.28789      2.21111      2.05636        -0.025664      0.043032      0.298700
      6.30413      2.19748      8.16656        -0.003683     -0.002924      0.016866
      3.80257      0.73488      6.13907        -0.009885      0.016900     -0.001842
      7.56604      1.45101      4.12460        -0.016855     -0.068906     -0.387852
      6.33032      0.73278      6.15439        -0.013453      0.000275      0.017047
      7.57051      4.36576      2.05350        -0.009592      0.069292      0.316588
      7.57103      4.36330      8.15802         0.014392      0.002332      0.028309
      5.03817      4.36229      2.03237        -0.069949      0.011847      0.285787
      5.04447      4.37529      8.18507        -0.002695     -0.005819      0.004877
      3.80277      3.61435      4.09537        -0.027677      0.017583     -0.090746
      2.56828      2.91275      6.15070         0.001452     -0.000360      0.003510
      6.30075      3.62795      4.12919         0.007651     -0.019941     -0.192574
      7.59406      2.92229      6.16202         0.001712      0.003094      0.019326
      6.29425      6.55133      2.04330        -0.103231      0.055699      0.187099
      6.31139      6.53888      8.13384        -0.007689      0.008075      0.039290
     -2.53418      5.82300      4.10902         0.113161      0.039828     -0.118376
      3.81389      6.57546      2.02350         0.010717     -0.133598      0.217148
      3.81099      6.56162      8.16556        -0.004405      0.011089      0.027794
      1.27603      5.09146      6.19940        -0.001006      0.026171     -0.007422
      6.29949      5.11635      6.15004         0.010735     -0.010613      0.023792
     -2.51443      7.29907      6.13661        -0.000128     -0.001314      0.013742
      0.01390      7.26127      6.18867        -0.005101     -0.007428      0.026333
      5.07676      7.30313      6.12459         0.010138     -0.001683      0.034804
      7.54405      0.03969      2.05505         0.029323      0.085172      0.156772
      7.57306      0.01705      8.22212         0.009686     -0.040417     -0.017797
      0.00095      1.48112      4.03255        -0.057285     -0.035838     -0.283165
      3.74186      2.14689      2.02455         0.228373      0.039281      0.043870
      3.79505      2.10455      8.21260         0.003672      0.048669     -0.002564
      1.31334      0.74189      6.17401        -0.006574      0.000888      0.003035
      5.08151      1.48100      4.08150        -0.014780      0.064615     -0.345665
      8.83425      0.74662      6.14701        -0.004215      0.021289      0.040408
     -0.02406      4.34464      2.06751        -0.027898      0.145582     -0.190914
     -0.04381      4.36878      8.32196         0.001282      0.006460     -0.010867
     -1.34500      3.63090      4.10833         0.073907     -0.006664     -0.237885
      2.55702      4.37025      2.00936         0.099651      0.047493      0.100919
      2.55810      4.35666      8.19222        -0.019321      0.011199     -0.018543
      1.32920      3.63133      4.09860         0.064200     -0.085566     -0.056917
      0.02934      2.97248      6.18797        -0.003029      0.003889      0.017570
      5.09121      2.94162      6.19874         0.007118      0.018077     -0.006296
     -1.32764      6.58396      2.06192         0.107141     -0.207446      0.044323
     -1.31016      6.59750      8.23418        -0.022064      0.008405     -0.001081
      1.24700      6.55932      2.04429        -0.067481     -0.140834      0.072404
      1.25574      6.49347      8.24062        -0.011138     -0.010856     -0.006456
      0.00782      5.79603      4.14909        -0.076394     -0.016348     -0.061636
     -1.28408      5.12042      6.22078         0.017714      0.004613      0.006153
      2.54188      5.84536      4.09542        -0.013624      0.018140     -0.173852
      5.06524      5.76239      4.09008        -0.166212     -0.076010     -0.346143
      3.78797      5.11856      6.16210         0.000715     -0.012493      0.020705
     -3.78540      7.99724      4.04874         0.055255      0.086925     -0.297231
     -1.25221      8.01099      4.12545        -0.063416      0.028021     -0.240628
      1.24224      8.03556      4.14192         0.084545     -0.067325     -0.201635
      3.80728      7.99919      4.08829        -0.038612      0.006435     -0.297534
      2.52325      7.29441      6.22192         0.019522      0.025435      0.002524
 -----------------------------------------------------------------------------------
    total drift:                                0.002575     -0.000928     -0.254591


--------------------------------------------------------------------------------------------------------



  FREE ENERGIE OF THE ION-ELECTRON SYSTEM (eV)
  ---------------------------------------------------
  free  energy   TOTEN  =      -412.39125743 eV

  energy  without entropy=     -412.39125743  energy(sigma->0) =     -412.39125743
 


--------------------------------------------------------------------------------------------------------


    POTLOK:  cpu time    0.2660: real time    0.2665


--------------------------------------------------------------------------------------------------------


     LOOP+:  cpu time 1093.6927: real time 1097.9067
    4ORBIT:  cpu time    0.0000: real time    0.0000
 


 total charge     
 
# of ion       s       p       d       tot
------------------------------------------
    1        0.494   0.373   8.317   9.184
    2        0.495   0.384   8.318   9.197
    3        0.500   0.388   8.329   9.217
    4        0.501   0.387   8.327   9.215
    5        0.504   0.396   8.310   9.210
    6        0.502   0.404   8.310   9.216
    7        0.497   0.379   8.326   9.202
    8        0.504   0.394   8.317   9.214
    9        0.500   0.389   8.319   9.209
   10        0.502   0.395   8.312   9.209
   11        0.505   0.508   8.318   9.331
   12        0.492   0.377   8.325   9.194
   13        0.499   0.386   8.327   9.212
   14        0.501   0.505   8.307   9.313
   15        0.510   0.513   8.316   9.340
   16        0.507   0.511   8.321   9.339
   17        0.492   0.374   8.332   9.198
   18        0.501   0.395   8.312   9.208
   19        0.490   0.374   8.322   9.186
   20        0.502   0.386   8.316   9.204
   21        0.512   0.521   8.314   9.347
   22        0.507   0.515   8.307   9.329
   23        0.503   0.502   8.329   9.335
   24        0.505   0.510   8.326   9.341
   25        0.497   0.380   8.328   9.205
   26        0.488   0.379   8.321   9.189
   27        0.506   0.509   8.319   9.334
   28        0.499   0.382   8.324   9.206
   29        0.504   0.391   8.317   9.213
   30        0.516   0.530   8.305   9.351
   31        0.502   0.498   8.335   9.334
   32        0.502   0.504   8.313   9.318
   33        0.508   0.515   8.314   9.337
   34        0.503   0.504   8.324   9.331
   35        0.460   0.382   6.151   6.993
   36        0.464   0.380   6.134   6.978
   37        0.466   0.489   6.187   7.141
   38        0.465   0.390   6.138   6.992
   39        0.462   0.385   6.106   6.953
   40        0.468   0.496   6.156   7.120
   41        0.473   0.500   6.183   7.155
   42        0.470   0.501   6.186   7.157
   43        0.468   0.394   6.156   7.018
   44        0.465   0.381   6.141   6.988
   45        0.472   0.502   6.176   7.150
   46        0.466   0.386   6.166   7.019
   47        0.465   0.395   6.154   7.014
   48        0.469   0.495   6.196   7.160
   49        0.470   0.499   6.185   7.154
   50        0.469   0.503   6.164   7.136
   51        0.464   0.391   6.147   7.002
   52        0.467   0.393   6.128   6.987
   53        0.464   0.388   6.161   7.013
   54        0.468   0.395   6.152   7.014
   55        0.473   0.504   6.201   7.178
   56        0.470   0.503   6.190   7.163
   57        0.475   0.503   6.218   7.196
   58        0.470   0.498   6.181   7.150
   59        0.474   0.501   6.206   7.181
   60        0.468   0.492   6.181   7.141
   61        0.471   0.496   6.184   7.151
   62        0.476   0.507   6.204   7.187
   63        0.471   0.502   6.197   7.169
   64        0.473   0.507   6.204   7.185
--------------------------------------------------
tot         31.106  28.516 467.991 527.613
 


 magnetization (x)
 
# of ion       s       p       d       tot
------------------------------------------
    1       -0.021  -0.027   0.724   0.676
    2       -0.017  -0.028   0.713   0.668
    3       -0.020  -0.031   0.689   0.638
    4       -0.017  -0.025   0.656   0.613
    5       -0.028  -0.044   0.734   0.662
    6       -0.021  -0.040   0.708   0.647
    7       -0.020  -0.026   0.702   0.656
    8       -0.018  -0.025   0.716   0.672
    9       -0.024  -0.038   0.713   0.651
   10       -0.023  -0.035   0.732   0.674
   11       -0.024  -0.049   0.741   0.669
   12       -0.018  -0.028   0.665   0.619
   13       -0.019  -0.028   0.686   0.639
   14       -0.020  -0.045   0.757   0.692
   15       -0.024  -0.047   0.728   0.656
   16       -0.022  -0.044   0.726   0.660
   17       -0.018  -0.027   0.653   0.608
   18       -0.018  -0.030   0.723   0.676
   19       -0.016  -0.026   0.698   0.655
   20       -0.022  -0.028   0.710   0.660
   21       -0.029  -0.057   0.754   0.668
   22       -0.024  -0.054   0.784   0.707
   23       -0.018  -0.036   0.683   0.628
   24       -0.019  -0.039   0.698   0.641
   25       -0.018  -0.025   0.703   0.660
   26       -0.011  -0.023   0.662   0.628
   27       -0.025  -0.047   0.712   0.639
   28       -0.025  -0.033   0.700   0.642
   29       -0.026  -0.033   0.691   0.632
   30       -0.032  -0.070   0.780   0.678
   31       -0.018  -0.031   0.657   0.607
   32       -0.020  -0.041   0.711   0.650
   33       -0.025  -0.055   0.737   0.657
   34       -0.025  -0.045   0.673   0.603
   35        0.011  -0.009   2.821   2.823
   36        0.009  -0.006   2.850   2.852
   37       -0.008  -0.028   2.675   2.639
   38        0.013  -0.007   2.853   2.859
   39        0.014  -0.009   2.911   2.916
   40        0.001  -0.017   2.787   2.771
   41       -0.002  -0.020   2.704   2.681
   42       -0.004  -0.027   2.691   2.659
   43       -0.002  -0.024   2.792   2.766
   44        0.002  -0.018   2.823   2.807
   45       -0.005  -0.028   2.715   2.682
   46        0.004  -0.014   2.792   2.781
   47        0.007  -0.017   2.792   2.782
   48       -0.007  -0.032   2.659   2.619
   49       -0.007  -0.031   2.690   2.651
   50        0.002  -0.018   2.768   2.751
   51        0.006  -0.018   2.818   2.806
   52        0.008  -0.014   2.855   2.849
   53       -0.002  -0.027   2.775   2.746
   54        0.001  -0.024   2.791   2.769
   55       -0.013  -0.047   2.631   2.571
   56       -0.004  -0.028   2.686   2.654
   57       -0.015  -0.041   2.561   2.504
   58        0.000  -0.018   2.701   2.683
   59       -0.004  -0.020   2.642   2.618
   60       -0.002  -0.019   2.708   2.688
   61       -0.003  -0.022   2.702   2.677
   62       -0.012  -0.040   2.620   2.568
   63       -0.008  -0.036   2.644   2.601
   64       -0.009  -0.037   2.614   2.568
--------------------------------------------------
tot         -0.756  -1.960 106.189 103.473
 
 BZINTS: Fermi energy:  0.042510;580.000000 electrons
         Band energy:***********;  BLOECHL correction: -0.129028

 total amount of memory used by VASP MPI-rank0   256936. kBytes
=======================================================================

   base      :      30000. kBytes
   nonlr-proj:      13018. kBytes
   fftplans  :       6403. kBytes
   grid      :      16455. kBytes
   one-center:         93. kBytes
   wavefun   :     190967. kBytes
 
  
  
 General timing and accounting informations for this job:
 ========================================================
  
                  Total CPU time used (sec):     1206.145
                            User time (sec):     1189.678
                          System time (sec):       16.466
                         Elapsed time (sec):     1218.653
  
                   Maximum memory used (kb):      354856.
                   Average memory used (kb):           0.
  
                          Minor page faults:        28391
                          Major page faults:            0
                 Voluntary context switches:         8878
