SQS-NiFe                                
           1
    10.100310    0.000000    0.000000
    -5.050155    8.747125    0.000000
     0.000000    0.000000   21.252661
   Ni   Fe
  34  30
Direct configuration=     1
   0.99904300  0.00064200  0.09410586
   0.00195388  0.00049582  0.38263438
   0.24849100  0.99862800  0.09563755
   0.24882230  0.99892072  0.38363891
   0.49902500  0.00192700  0.09538843
   0.50246233  0.99824220  0.38255863
   0.99813900  0.25067400  0.09552521
   0.00010919  0.24981806  0.38349260
   0.24921500  0.24886200  0.09476883
   0.24904143  0.25065165  0.38470360
   0.33446800  0.16514600  0.19222469
   0.74893500  0.25278100  0.09675772
   0.74976383  0.25122302  0.38426045
   0.41848793  0.08401433  0.28886138
   0.83203200  0.16588400  0.19407448
   0.66863160  0.08377378  0.28958192
   0.99908600  0.49910800  0.09662298
   0.99899694  0.49882697  0.38385858
   0.74816900  0.49871100  0.09562882
   0.74953608  0.50019719  0.38513136
   0.58310200  0.41320400  0.19269936
   0.42077520  0.33299548  0.28940857
   0.83119700  0.41475900  0.19429042
   0.91890744  0.33408592  0.28994110
   0.99765800  0.74896900  0.09614336
   0.99864459  0.74754668  0.38272096
   0.08195100  0.66570400  0.19334166
   0.75346500  0.75172800  0.09521148
   0.75238709  0.75014569  0.38421377
   0.41737179  0.58207228  0.29170006
   0.91615226  0.58491842  0.28937747
   0.16828067  0.83445393  0.28874549
   0.41644189  0.83013181  0.29119500
   0.92009313  0.83491829  0.28817985
   0.74918200  0.00453800  0.09669603
   0.75076015  0.00194954  0.38687471
   0.08475800  0.16932700  0.18974338
   0.49319000  0.24544000  0.09526096
   0.49603617  0.24059949  0.38642687
   0.17243779  0.08481553  0.29050527
   0.58776100  0.16931300  0.19204658
   0.91732955  0.08535549  0.28923505
   0.24596400  0.49669300  0.09728245
   0.24538932  0.49945367  0.39157246
   0.07438400  0.41509600  0.19330907
   0.50297300  0.49962100  0.09454619
   0.50230352  0.49806800  0.38546788
   0.33917200  0.41514500  0.19285128
   0.17281644  0.33982342  0.29116224
   0.67221219  0.33629568  0.29166867
   0.24490500  0.75270000  0.09701936
   0.24740871  0.75424745  0.38744251
   0.49840300  0.74988300  0.09618992
   0.49550496  0.74235524  0.38774554
   0.33208500  0.66262100  0.19522695
   0.16555908  0.58538305  0.29270611
   0.58579400  0.66826100  0.19270140
   0.83088100  0.65877500  0.19245024
   0.66762000  0.58517049  0.28994464
   0.08235500  0.91427100  0.19050529
   0.33394400  0.91584300  0.19411435
   0.58231600  0.91865200  0.19488936
   0.83419400  0.91449400  0.19236584
   0.66677887  0.83392042  0.29275936
