       N       E                     dE             d eps       ncg     rms          rms(c)
DAV:   1     0.401914857979E+04    0.40191E+04   -0.16812E+05 27132   0.173E+03
DAV:   2     0.327378985285E+03   -0.36918E+04   -0.33649E+04 27132   0.365E+02
DAV:   3    -0.292711441813E+03   -0.62009E+03   -0.48682E+03 27132   0.177E+02
DAV:   4    -0.337690093413E+03   -0.44979E+02   -0.43184E+02 29001   0.580E+01
DAV:   5    -0.338337400247E+03   -0.64731E+00   -0.64627E+00 32145   0.687E+00    0.103E+02
RMM:   6    -0.503258325005E+03   -0.16492E+03   -0.56440E+02 31395   0.649E+01    0.157E+02
RMM:   7    -0.361552420341E+03    0.14171E+03   -0.15020E+02 30271   0.348E+01    0.110E+02
RMM:   8    -0.373244354910E+03   -0.11692E+02   -0.94012E+01 29669   0.254E+01    0.120E+02
RMM:   9    -0.352059696542E+03    0.21185E+02   -0.36206E+01 29352   0.169E+01    0.873E+01
RMM:  10    -0.326328214796E+03    0.25731E+02   -0.25331E+01 29313   0.139E+01    0.571E+01
RMM:  11    -0.350327092074E+03   -0.23999E+02   -0.17416E+01 29139   0.113E+01    0.914E+01
RMM:  12    -0.326147300694E+03    0.24180E+02   -0.14706E+01 29502   0.106E+01    0.352E+01
RMM:  13    -0.326033495225E+03    0.11381E+00   -0.34339E+00 30050   0.496E+00    0.327E+01
RMM:  14    -0.328264212639E+03   -0.22307E+01   -0.26344E+00 29433   0.436E+00    0.318E+01
RMM:  15    -0.326204993724E+03    0.20592E+01   -0.15527E+00 29379   0.327E+00    0.191E+01
RMM:  16    -0.326941989797E+03   -0.73700E+00   -0.54584E-01 29766   0.188E+00    0.188E+01
RMM:  17    -0.327573903100E+03   -0.63191E+00   -0.65980E-01 29313   0.201E+00    0.154E+01
RMM:  18    -0.327900864589E+03   -0.32696E+00   -0.41783E-01 29670   0.165E+00    0.134E+01
RMM:  19    -0.328451513115E+03   -0.55065E+00   -0.34900E-01 30154   0.148E+00    0.117E+01
RMM:  20    -0.329079177715E+03   -0.62766E+00   -0.39595E-01 29765   0.159E+00    0.123E+01
RMM:  21    -0.329203678182E+03   -0.12450E+00   -0.36747E-01 29525   0.146E+00    0.872E+00
RMM:  22    -0.329409731598E+03   -0.20605E+00   -0.26952E-01 29986   0.132E+00    0.864E+00
RMM:  23    -0.329425847004E+03   -0.16115E-01   -0.20563E-01 30139   0.114E+00    0.523E+00
RMM:  24    -0.329503765335E+03   -0.77918E-01   -0.16479E-01 29928   0.106E+00    0.581E+00
RMM:  25    -0.329448036612E+03    0.55729E-01   -0.89908E-02 30043   0.777E-01    0.344E+00
RMM:  26    -0.329440137391E+03    0.78992E-02   -0.42176E-02 30452   0.541E-01    0.302E+00
RMM:  27    -0.329424314619E+03    0.15823E-01   -0.17759E-02 30432   0.351E-01    0.180E+00
RMM:  28    -0.329422896876E+03    0.14177E-02   -0.11138E-02 30292   0.282E-01    0.152E+00
RMM:  29    -0.329416945643E+03    0.59512E-02   -0.39112E-03 30060   0.165E-01    0.719E-01
RMM:  30    -0.329417639830E+03   -0.69419E-03   -0.17434E-03 30308   0.109E-01    0.644E-01
RMM:  31    -0.329416749020E+03    0.89081E-03   -0.88830E-04 30509   0.771E-02    0.374E-01
RMM:  32    -0.329417535818E+03   -0.78680E-03   -0.72224E-04 30197   0.705E-02    0.413E-01
RMM:  33    -0.329416906355E+03    0.62946E-03   -0.36152E-04 30057   0.511E-02    0.188E-01
RMM:  34    -0.329417051323E+03   -0.14497E-03   -0.17950E-04 30269   0.351E-02    0.209E-01
RMM:  35    -0.329416912526E+03    0.13880E-03   -0.77780E-05 29982   0.237E-02    0.857E-02
RMM:  36    -0.329416790774E+03    0.12175E-03   -0.30899E-05 30482   0.145E-02    0.971E-02
RMM:  37    -0.329416742286E+03    0.48489E-04   -0.19782E-05 29879   0.119E-02    0.336E-02
RMM:  38    -0.329416664885E+03    0.77401E-04   -0.90008E-06 30157   0.782E-03    0.485E-02
RMM:  39    -0.329416666346E+03   -0.14609E-05   -0.46246E-06 27614   0.587E-03    0.179E-02
RMM:  40    -0.329416669179E+03   -0.28332E-05   -0.11700E-06 20018   0.289E-03    0.195E-02
RMM:  41    -0.329416673206E+03   -0.40272E-05   -0.85418E-07 18532   0.276E-03    0.961E-03
RMM:  42    -0.329416680887E+03   -0.76802E-05   -0.35378E-07 15489   0.160E-03    0.104E-02
RMM:  43    -0.329416681410E+03   -0.52297E-06   -0.29225E-07 15291   0.156E-03
   1 F= -.32941668E+03 E0= -.32941668E+03  d E =0.000000E+00  mag=    78.5582
