 vasp.5.4.4.18Apr17-6-g9f103f2a35 (build Sep 06 2021 19:49:22) complex          
  
 executed on             LinuxIFC date 2021.12.25  01:06:26
 running on   24 total cores
 distrk:  each k-point on   24 cores,    1 groups
 distr:  one band on NCORES_PER_BAND=   8 cores,    3 groups


--------------------------------------------------------------------------------------------------------


 INCAR:
 POTCAR:    PAW_PBE Ni 02Aug2007                  
 POTCAR:    PAW_PBE Fe 06Sep2000                  
 POTCAR:    PAW_PBE Ni 02Aug2007                  
   VRHFIN =Ni:                                                                  
   LEXCH  = PE                                                                  
   EATOM  =  1077.6739 eV,   79.2068 Ry                                         
                                                                                
   TITEL  = PAW_PBE Ni 02Aug2007                                                
   LULTRA =        F    use ultrasoft PP ?                                      
   IUNSCR =        1    unscreen: 0-lin 1-nonlin 2-no                           
   RPACOR =    2.000    partial core radius                                     
   POMASS =   58.690; ZVAL   =   10.000    mass and valenz                      
   RCORE  =    2.300    outmost cutoff radius                                   
   RWIGS  =    2.430; RWIGS  =    1.286    wigner-seitz radius (au A)           
   ENMAX  =  269.532; ENMIN  =  202.149 eV                                      
   RCLOC  =    1.201    cutoff for local pot                                    
   LCOR   =        T    correct aug charges                                     
   LPAW   =        T    paw PP                                                  
   EAUG   =  544.565                                                            
   DEXC   =    0.000                                                            
   RMAX   =    2.357    core radius for proj-oper                               
   RAUG   =    1.300    factor for augmentation sphere                          
   RDEP   =    2.390    radius for radial grids                                 
   RDEPT  =    1.838    core radius for aug-charge                              
                                                                                
   Atomic configuration                                                         
    9 entries                                                                   
     n  l   j            E        occ.                                          
     1  0  0.50     -8206.4253   2.0000                                         
     2  0  0.50      -976.1748   2.0000                                         
     2  1  1.50      -839.0571   6.0000                                         
     3  0  0.50      -105.9991   2.0000                                         
     3  1  1.50       -66.4603   6.0000                                         
     3  2  2.50        -4.6458   9.0000                                         
     4  0  0.50        -4.4926   1.0000                                         
     4  1  1.50        -4.0817   0.0000                                         
     4  3  2.50        -1.3606   0.0000                                         
   Description                                                                  
     l       E           TYP  RCUT    TYP  RCUT                                 
     2     -4.6457903     23  2.300                                             
     2     -6.0063729     23  2.300                                             
     0     -4.4925590     23  2.300                                             
     0      5.0102601     23  2.300                                             
     1     -2.7211652     23  2.300                                             
     1     16.5183231     23  2.300                                             
  local pseudopotential read in
  partial core-charges read in
  partial kinetic energy density read in
  atomic valenz-charges read in
  non local Contribution for L=           2  read in
    real space projection operators read in
  non local Contribution for L=           2  read in
    real space projection operators read in
  non local Contribution for L=           0  read in
    real space projection operators read in
  non local Contribution for L=           0  read in
    real space projection operators read in
  non local Contribution for L=           1  read in
    real space projection operators read in
  non local Contribution for L=           1  read in
    real space projection operators read in
    PAW grid and wavefunctions read in
 
   number of l-projection  operators is LMAX  =           6
   number of lm-projection operators is LMMAX =          18
 
 POTCAR:    PAW_PBE Fe 06Sep2000                  
   VRHFIN =Fe:  d7 s1                                                           
   LEXCH  = PE                                                                  
   EATOM  =   594.3153 eV,   43.6809 Ry                                         
                                                                                
   TITEL  = PAW_PBE Fe 06Sep2000                                                
   LULTRA =        F    use ultrasoft PP ?                                      
   IUNSCR =        1    unscreen: 0-lin 1-nonlin 2-no                           
   RPACOR =    2.000    partial core radius                                     
   POMASS =   55.847; ZVAL   =    8.000    mass and valenz                      
   RCORE  =    2.300    outmost cutoff radius                                   
   RWIGS  =    2.460; RWIGS  =    1.302    wigner-seitz radius (au A)           
   ENMAX  =  267.882; ENMIN  =  200.911 eV                                      
   RCLOC  =    1.701    cutoff for local pot                                    
   LCOR   =        T    correct aug charges                                     
   LPAW   =        T    paw PP                                                  
   EAUG   =  511.368                                                            
   DEXC   =    0.000                                                            
   RMAX   =    2.356    core radius for proj-oper                               
   RAUG   =    1.300    factor for augmentation sphere                          
   RDEP   =    2.442    radius for radial grids                                 
   RDEPT  =    1.890    core radius for aug-charge                              
                                                                                
   Atomic configuration                                                         
    9 entries                                                                   
     n  l   j            E        occ.                                          
     1  0  0.50     -6993.8440   2.0000                                         
     2  0  0.50      -814.6047   2.0000                                         
     2  1  1.50      -693.3689   6.0000                                         
     3  0  0.50       -89.4732   2.0000                                         
     3  1  1.50       -55.6373   6.0000                                         
     3  2  2.50        -3.8151   7.0000                                         
     4  0  0.50        -4.2551   1.0000                                         
     4  1  1.50        -3.4015   0.0000                                         
     4  3  2.50        -1.3606   0.0000                                         
   Description                                                                  
     l       E           TYP  RCUT    TYP  RCUT                                 
     2     -3.8151135     23  2.300                                             
     2     -5.1756961     23  2.300                                             
     0     -4.2550963     23  2.300                                             
     0      7.2035603     23  2.300                                             
     1     -2.7211652     23  2.300                                             
     1     18.4316424     23  2.300                                             
  local pseudopotential read in
  partial core-charges read in
  partial kinetic energy density read in
  atomic valenz-charges read in
  non local Contribution for L=           2  read in
    real space projection operators read in
  non local Contribution for L=           2  read in
    real space projection operators read in
  non local Contribution for L=           0  read in
    real space projection operators read in
  non local Contribution for L=           0  read in
    real space projection operators read in
  non local Contribution for L=           1  read in
    real space projection operators read in
  non local Contribution for L=           1  read in
    real space projection operators read in
    PAW grid and wavefunctions read in
 
   number of l-projection  operators is LMAX  =           6
   number of lm-projection operators is LMMAX =          18
 
 Optimization of the real space projectors (new method)

 maximal supplied QI-value         = 16.25
 optimisation between [QCUT,QGAM] = [ 11.54, 23.24] = [ 37.28,151.24] Ry 
 Optimized for a Real-space Cutoff    1.45 Angstroem

   l    n(q)    QCUT    max X(q) W(low)/X(q) W(high)/X(q)  e(spline) 
   2      9    11.539    60.317    0.19E-03    0.47E-04    0.16E-06
   2      9    11.539    55.921    0.19E-03    0.48E-04    0.16E-06
   0     10    11.539    51.690    0.80E-04    0.50E-04    0.24E-06
   0     10    11.539    30.015    0.73E-04    0.45E-04    0.22E-06
   1     10    11.539    18.849    0.87E-04    0.16E-03    0.71E-07
   1     10    11.539    14.624    0.73E-04    0.13E-03    0.64E-07
 Optimization of the real space projectors (new method)

 maximal supplied QI-value         = 16.25
 optimisation between [QCUT,QGAM] = [ 11.54, 23.24] = [ 37.28,151.24] Ry 
 Optimized for a Real-space Cutoff    1.53 Angstroem

   l    n(q)    QCUT    max X(q) W(low)/X(q) W(high)/X(q)  e(spline) 
   2     10    11.539    80.901    0.11E-03    0.14E-03    0.21E-06
   2     10    11.539    75.754    0.11E-03    0.14E-03    0.22E-06
   0     11    11.539    58.752    0.52E-04    0.18E-04    0.33E-06
   0     11    11.539    30.679    0.44E-04    0.16E-04    0.30E-06
   1     10    11.539    17.977    0.53E-04    0.29E-04    0.13E-06
   1     10    11.539    13.559    0.44E-04    0.25E-04    0.11E-06
  PAW_PBE Ni 02Aug2007                  :
 energy of atom  1       EATOM=-1077.6739
 kinetic energy error for atom=    0.0030 (will be added to EATOM!!)
  PAW_PBE Fe 06Sep2000                  :
 energy of atom  2       EATOM= -594.3153
 kinetic energy error for atom=    0.0026 (will be added to EATOM!!)
 
 
 POSCAR: POSCAR                                  
  positions in direct lattice
  velocities in cartesian coordinates
 exchange correlation table for  LEXCH =        8
   RHO(1)=    0.500       N(1)  =     2000
   RHO(2)=  100.500       N(2)  =     4000
 


--------------------------------------------------------------------------------------------------------


 ion  position               nearest neighbor table
   1  0.999  0.001  0.994-  19 2.50  24 2.50  26 2.51   5 2.52  30 2.52  28 2.52  44 2.53   2 2.53
                             4 2.53  17 2.54  47 2.54  25 2.54
   2  0.248  0.999  0.999-  37 2.47  27 2.48  44 2.49  28 2.50   3 2.51   6 2.52  22 2.52   5 2.52
                            17 2.53   1 2.53   8 2.56  45 2.56
   3  0.499  0.002  0.998-  27 2.49  23 2.50  25 2.51   2 2.51   8 2.52  10 2.52  29 2.52   7 2.53
                            37 2.54  38 2.54  45 2.55  46 2.57
   4  0.998  0.251  0.999-  26 2.48  31 2.49  16 2.50  25 2.50  11 2.50   7 2.53  32 2.53   1 2.53
                            30 2.53   5 2.55  35 2.55   9 2.55
   5  0.249  0.249  0.996-  26 2.48  27 2.48  28 2.50  35 2.50   1 2.52  31 2.52   2 2.52  34 2.54
                             6 2.54  14 2.54   4 2.55  33 2.55
   6  0.334  0.165  0.331-  27 2.48  34 2.50  13 2.51   8 2.51  45 2.52   2 2.52  28 2.52  14 2.52
                            29 2.54  44 2.54  26 2.54   5 2.54
   7  0.749  0.253  0.003-  29 2.47  12 2.49  36 2.49  11 2.51  25 2.51  15 2.51   4 2.53   3 2.53
                            10 2.54  27 2.55   9 2.55  16 2.55
   8  0.418  0.084  0.662-  45 2.49  28 2.49   6 2.51  27 2.51  14 2.51   3 2.52  10 2.52  23 2.53
                            22 2.53  29 2.53  36 2.56   2 2.56
   9  0.832  0.166  0.337-  30 2.48  32 2.48  29 2.49  10 2.50  25 2.51  46 2.51  15 2.52  16 2.52
                            26 2.54   7 2.55   4 2.55  47 2.55
  10  0.668  0.085  0.668-  46 2.49   9 2.50  25 2.51  30 2.51  36 2.51   8 2.52   3 2.52  16 2.53
                            23 2.54  29 2.54  48 2.54   7 2.54
  11  0.999  0.499  0.002-  32 2.48  40 2.50   4 2.50  31 2.51   7 2.51  16 2.52  18 2.52  37 2.52
                            17 2.53  12 2.53  15 2.54  21 2.55
  12  0.748  0.499  0.999-  33 2.48   7 2.49  42 2.49  36 2.49  13 2.52  43 2.52  21 2.52  17 2.52
                            19 2.53  11 2.53  15 2.56  27 2.57
  13  0.583  0.413  0.332-  34 2.47  29 2.49  42 2.49  14 2.49  15 2.50   6 2.51  12 2.52  27 2.54
                            36 2.54  33 2.54  43 2.55  41 2.56
  14  0.420  0.333  0.663-  34 2.48  13 2.49  27 2.51   8 2.51  28 2.52  43 2.52  33 2.52   6 2.52
                            35 2.53  20 2.54  36 2.54   5 2.54
  15  0.831  0.415  0.338-  32 2.45  42 2.47  29 2.47  36 2.47  13 2.50  16 2.51   7 2.51   9 2.52
                            21 2.52  18 2.53  11 2.54  12 2.56
  16  0.919  0.335  0.668-  32 2.47  36 2.49   4 2.50  30 2.51  15 2.51  40 2.51  11 2.52   9 2.52
                            10 2.53  21 2.54  35 2.54   7 2.55
  17  0.998  0.749  0.001-  44 2.47  37 2.48  19 2.48  24 2.50  42 2.51  21 2.52  12 2.52   2 2.53
                            11 2.53  18 2.53   1 2.54  22 2.55
  18  0.082  0.666  0.335-  32 2.49  37 2.50  42 2.50  44 2.51  22 2.52  21 2.52  11 2.52  40 2.53
                            17 2.53  15 2.53  45 2.54  39 2.54
  19  0.753  0.752  0.998-  17 2.48  48 2.49   1 2.50  47 2.51  24 2.51  43 2.52  12 2.53  33 2.54
                            41 2.54  42 2.55  38 2.57  25 2.58
  20  0.417  0.584  0.670-  35 2.49  39 2.49  33 2.50  38 2.51  43 2.52  23 2.52  48 2.53  14 2.54
                            34 2.55  41 2.55  31 2.56  40 2.57
  21  0.916  0.585  0.667-  36 2.48  24 2.48  42 2.50  43 2.50  40 2.51  17 2.52  18 2.52  15 2.52
                            12 2.52  22 2.53  16 2.54  11 2.55
  22  0.167  0.835  0.664-  24 2.48  28 2.49  45 2.49  40 2.50  18 2.52   2 2.52  37 2.53   8 2.53
                            21 2.53  23 2.54  44 2.54  17 2.55
  23  0.417  0.833  0.672-  38 2.49   3 2.50  46 2.51  40 2.52  45 2.52  20 2.52   8 2.53  39 2.53
                            10 2.54  22 2.54  48 2.54  37 2.55
  24  0.920  0.833  0.667-  22 2.48  21 2.48   1 2.50  17 2.50  19 2.51  43 2.53  28 2.54  47 2.54
                            48 2.54  44 2.55  42 2.57  30 2.57
  25  0.749  0.005  0.003-   4 2.50   9 2.51  10 2.51   7 2.51   3 2.51  48 2.54   1 2.54  47 2.55
                            46 2.55  38 2.55  30 2.57  19 2.58
  26  0.085  0.169  0.322-   5 2.48   4 2.48   1 2.51  34 2.53   9 2.54  32 2.54   6 2.54  47 2.55
                            44 2.56  30 2.56  35 2.59  28 2.61
  27  0.493  0.245  0.998-   5 2.48   2 2.48   6 2.48   3 2.49   8 2.51  14 2.51  33 2.52  13 2.54
                            29 2.54   7 2.55  12 2.57  36 2.57
  28  0.171  0.083  0.667-  22 2.49   8 2.49   2 2.50   5 2.50  14 2.52   6 2.52   1 2.52  24 2.54
                            35 2.57  44 2.58  30 2.58  26 2.61
  29  0.588  0.169  0.330-   7 2.47  15 2.47   9 2.49  13 2.49  46 2.51   3 2.52   8 2.53  10 2.54
                             6 2.54  27 2.54  36 2.55  45 2.56
  30  0.917  0.086  0.662-   9 2.48  16 2.51  10 2.51   1 2.52  48 2.53   4 2.53  47 2.54  35 2.55
                            26 2.56  25 2.57  24 2.57  28 2.58
  31  0.246  0.497  0.005-   4 2.49  11 2.51  35 2.51   5 2.52  32 2.53  40 2.54  39 2.54  34 2.54
                            38 2.55  20 2.56  33 2.58  37 2.59
  32  0.074  0.415  0.335-  15 2.45  16 2.47  11 2.48   9 2.48  18 2.49   4 2.53  31 2.53  26 2.54
                            39 2.55  35 2.56  40 2.58  34 2.67
  33  0.503  0.500  0.995-  12 2.48  43 2.49  20 2.50  27 2.52  14 2.52  34 2.53  19 2.54  13 2.54
                             5 2.55  38 2.55  41 2.55  31 2.58
  34  0.339  0.415  0.333-  13 2.47  14 2.48   6 2.50  41 2.52  26 2.53  33 2.53  39 2.54  35 2.54
                             5 2.54  31 2.54  20 2.55  32 2.67
  35  0.171  0.337  0.667-  20 2.49   5 2.50  31 2.51  14 2.53  16 2.54  34 2.54   4 2.55  40 2.55
                            30 2.55  32 2.56  28 2.57  26 2.59
  36  0.673  0.336  0.669-  15 2.47  21 2.48  16 2.49  12 2.49   7 2.49  10 2.51  43 2.53  13 2.54
                            14 2.54  29 2.55   8 2.56  27 2.57
  37  0.245  0.753  0.004-   2 2.47  17 2.48  18 2.50  40 2.51  45 2.51  11 2.52  22 2.53   3 2.54
                            23 2.55  38 2.57  31 2.59  39 2.60
  38  0.498  0.750  0.001-  23 2.49  20 2.51  48 2.52  41 2.53   3 2.54  33 2.55  25 2.55  31 2.55
                            39 2.56  46 2.57  19 2.57  37 2.57
  39  0.332  0.663  0.341-  20 2.49  40 2.52  23 2.53  41 2.54  34 2.54  31 2.54  18 2.54  45 2.55
                            32 2.55  46 2.56  38 2.56  37 2.60
  40  0.165  0.586  0.673-  11 2.50  22 2.50  37 2.51  21 2.51  16 2.51  23 2.52  39 2.52  18 2.53
                            31 2.54  35 2.55  20 2.57  32 2.58
  41  0.586  0.668  0.332-  47 2.50  43 2.52  34 2.52  42 2.52  38 2.53  39 2.54  19 2.54  48 2.54
                            46 2.55  20 2.55  33 2.55  13 2.56
  42  0.831  0.659  0.332-  15 2.47  12 2.49  13 2.49  21 2.50  18 2.50  17 2.51  43 2.52  41 2.52
                            19 2.55  44 2.56  47 2.57  24 2.57
  43  0.668  0.584  0.666-  33 2.49  21 2.50  48 2.51  42 2.52  19 2.52  12 2.52  14 2.52  41 2.52
                            20 2.52  24 2.53  36 2.53  13 2.55
  44  0.082  0.914  0.325-  17 2.47   2 2.49  47 2.51  18 2.51   1 2.53  45 2.53  22 2.54   6 2.54
                            24 2.55  42 2.56  26 2.56  28 2.58
  45  0.334  0.916  0.337-   8 2.49  22 2.49  46 2.49  37 2.51   6 2.52  23 2.52  44 2.53  18 2.54
                             3 2.55  39 2.55   2 2.56  29 2.56
  46  0.582  0.919  0.340-  10 2.49  45 2.49  29 2.51  23 2.51   9 2.51  48 2.54  25 2.55  41 2.55
                            39 2.56  38 2.57  47 2.57   3 2.57
  47  0.834  0.914  0.331-  41 2.50  44 2.51  19 2.51  30 2.54   1 2.54  24 2.54  25 2.55   9 2.55
                            48 2.55  26 2.55  46 2.57  42 2.57
  48  0.668  0.834  0.671-  19 2.49  43 2.51  38 2.52  30 2.53  20 2.53  46 2.54  23 2.54  25 2.54
                            10 2.54  41 2.54  24 2.54  47 2.55
 

IMPORTANT INFORMATION: All symmetrisations will be switched off!
NOSYMM: (Re-)initialisation of all symmetry stuff for point group C_1.

 
 

Automatic generation of k-mesh.
 generate k-points for:    3    3    4
Space group operators:
 irot       det(A)        alpha          n_x          n_y          n_z        tau_x        tau_y        tau_z
    1     1.000000     0.000000     1.000000     0.000000     0.000000     0.000000     0.000000     0.000000
 
 Subroutine IBZKPT returns following result:
 ===========================================
 
 Found     19 irreducible k-points:
 
 Following reciprocal coordinates:
            Coordinates               Weight
  0.000000  0.000000  0.000000      1.000000
  0.333333  0.000000  0.000000      2.000000
  0.000000  0.333333  0.000000      2.000000
  0.333333  0.333333  0.000000      2.000000
 -0.333333  0.333333  0.000000      2.000000
  0.000000  0.000000  0.250000      2.000000
  0.333333  0.000000  0.250000      2.000000
 -0.333333  0.000000  0.250000      2.000000
  0.000000  0.333333  0.250000      2.000000
  0.333333  0.333333  0.250000      2.000000
 -0.333333  0.333333  0.250000      2.000000
  0.000000 -0.333333  0.250000      2.000000
  0.333333 -0.333333  0.250000      2.000000
 -0.333333 -0.333333  0.250000      2.000000
  0.000000  0.000000  0.500000      1.000000
  0.333333  0.000000  0.500000      2.000000
  0.000000  0.333333  0.500000      2.000000
  0.333333  0.333333  0.500000      2.000000
 -0.333333  0.333333  0.500000      2.000000
 
 Following cartesian coordinates:
            Coordinates               Weight
  0.000000  0.000000 -0.000000      1.000000
  0.111111 -0.055556 -0.055556      2.000000
  0.055556  0.055556 -0.111111      2.000000
  0.166667  0.000000 -0.166667      2.000000
 -0.055556  0.111111 -0.055556      2.000000
  0.083333  0.083333  0.083333      2.000000
  0.194444  0.027778  0.027778      2.000000
 -0.027778  0.138889  0.138889      2.000000
  0.138889  0.138889 -0.027778      2.000000
  0.250000  0.083333 -0.083333      2.000000
  0.027778  0.194444  0.027778      2.000000
  0.027778  0.027778  0.194444      2.000000
  0.138889 -0.027778  0.138889      2.000000
 -0.083333  0.083333  0.250000      2.000000
  0.166667  0.166667  0.166667      1.000000
  0.277778  0.111111  0.111111      2.000000
  0.222222  0.222222  0.055556      2.000000
  0.333333  0.166667 -0.000000      2.000000
  0.111111  0.277778  0.111111      2.000000
 
 TETIRR: Found    106 inequivalent tetrahedra from      216


--------------------------------------------------------------------------------------------------------




 Dimension of arrays:
   k-points           NKPTS =     19   k-points in BZ     NKDIM =     19   number of bands    NBANDS=    357
   number of dos      NEDOS =    301   number of ions     NIONS =     48
   non local maximal  LDIM  =      6   non local SUM 2l+1 LMDIM =     18
   total plane-waves  NPLWV = 307200
   max r-space proj   IRMAX =   8547   max aug-charges    IRDMAX=  20223
   dimension x,y,z NGX =    80 NGY =   80 NGZ =   48
   dimension x,y,z NGXF=   160 NGYF=  160 NGZF=   96
   support grid    NGXF=   160 NGYF=  160 NGZF=   96
   ions per type =              24  24
   NGX,Y,Z   is equivalent  to a cutoff of  13.17, 13.17, 12.90 a.u.
   NGXF,Y,Z  is equivalent  to a cutoff of  26.34, 26.34, 25.80 a.u.

 SYSTEM =  SQS-NiFe                                
 POSCAR =  POSCAR                                  

 Startparameter for this run:
   NWRITE =      2    write-flag & timer
   PREC   = accura    normal or accurate (medium, high low for compatibility)
   ISTART =      0    job   : 0-new  1-cont  2-samecut
   ICHARG =      2    charge: 1-file 2-atom 10-const
   ISPIN  =      2    spin polarized calculation?
   LNONCOLLINEAR =      F non collinear calculations
   LSORBIT =      F    spin-orbit coupling
   INIWAV =      1    electr: 0-lowe 1-rand  2-diag
   LASPH  =      F    aspherical Exc in radial PAW
   METAGGA=      F    non-selfconsistent MetaGGA calc.

 Electronic Relaxation 1
   ENCUT  =  520.0 eV  38.22 Ry    6.18 a.u.  18.78 18.78 11.50*2*pi/ulx,y,z
   ENINI  =  520.0     initial cutoff
   ENAUG  =  544.6 eV  augmentation charge cutoff
   NELM   =    200;   NELMIN=  2; NELMDL= -5     # of ELM steps 
   EDIFF  = 0.1E-05   stopping-criterion for ELM
   LREAL  =      T    real-space projection
   NLSPLINE    = F    spline interpolate recip. space projectors
   LCOMPAT=      F    compatible to vasp.4.4
   GGA_COMPAT  = T    GGA compatible to vasp.4.4-vasp.4.6
   LMAXPAW     = -100 max onsite density
   LMAXMIX     =    2 max onsite mixed and CHGCAR
   VOSKOWN=      0    Vosko Wilk Nusair interpolation
   ROPT   =   -0.00025  -0.00025
 Ionic relaxation
   EDIFFG = -.2E-01   stopping-criterion for IOM
   NSW    =      0    number of steps for IOM
   NBLOCK =      1;   KBLOCK =      1    inner block; outer block 
   IBRION =     -1    ionic relax: 0-MD 1-quasi-New 2-CG
   NFREE  =      0    steps in history (QN), initial steepest desc. (CG)
   ISIF   =      2    stress and relaxation
   IWAVPR =     10    prediction:  0-non 1-charg 2-wave 3-comb
   ISYM   =      0    0-nonsym 1-usesym 2-fastsym
   LCORR  =      T    Harris-Foulkes like correction to forces

   POTIM  = 0.5000    time-step for ionic-motion
   TEIN   =    0.0    initial temperature
   TEBEG  =    0.0;   TEEND  =   0.0 temperature during run
   SMASS  =  -3.00    Nose mass-parameter (am)
   estimated Nose-frequenzy (Omega)   =  0.10E-29 period in steps =****** mass=  -0.233E-26a.u.
   SCALEE = 1.0000    scale energy and forces
   NPACO  =    256;   APACO  = 16.0  distance and # of slots for P.C.
   PSTRESS=    0.0 pullay stress

  Mass of Ions in am
   POMASS =  58.69 55.85
  Ionic Valenz
   ZVAL   =  10.00  8.00
  Atomic Wigner-Seitz radii
   RWIGS  =  -1.00 -1.00
  virtual crystal weights 
   VCA    =   1.00  1.00
   NELECT =     432.0000    total number of electrons
   NUPDOWN=      -1.0000    fix difference up-down

 DOS related values:
   EMIN   =  10.00;   EMAX   =-10.00  energy-range for DOS
   EFERMI =   0.00
   ISMEAR =    -5;   SIGMA  =   0.20  broadening in eV -4-tet -1-fermi 0-gaus

 Electronic relaxation 2 (details)
   IALGO  =     68    algorithm
   LDIAG  =      T    sub-space diagonalisation (order eigenvalues)
   LSUBROT=      F    optimize rotation matrix (better conditioning)
   TURBO    =      0    0=normal 1=particle mesh
   IRESTART =      0    0=no restart 2=restart with 2 vectors
   NREBOOT  =      0    no. of reboots
   NMIN     =      0    reboot dimension
   EREF     =   0.00    reference energy to select bands
   IMIX   =      4    mixing-type and parameters
     AMIX     =   0.40;   BMIX     =  1.00
     AMIX_MAG =   1.60;   BMIX_MAG =  1.00
     AMIN     =   0.10
     WC   =   100.;   INIMIX=   1;  MIXPRE=   1;  MAXMIX= -45

 Intra band minimization:
   WEIMIN = 0.0000     energy-eigenvalue tresh-hold
   EBREAK =  0.70E-09  absolut break condition
   DEPER  =   0.30     relativ break condition  

   TIME   =   0.40     timestep for ELM

  volume/ion in A,a.u.               =      11.38        76.83
  Fermi-wavevector in a.u.,A,eV,Ry     =   1.513744  2.860562 31.176681  2.291421
  Thomas-Fermi vector in A             =   2.623494
 
 Write flags
   LWAVE        =      F    write WAVECAR
   LDOWNSAMPLE  =      F    k-point downsampling of WAVECAR
   LCHARG       =      T    write CHGCAR
   LVTOT        =      F    write LOCPOT, total local potential
   LVHAR        =      F    write LOCPOT, Hartree potential only
   LELF         =      F    write electronic localiz. function (ELF)
   LORBIT       =     11    0 simple, 1 ext, 2 COOP (PROOUT), +10 PAW based schemes


 Dipole corrections
   LMONO  =      F    monopole corrections only (constant potential shift)
   LDIPOL =      F    correct potential (dipole corrections)
   IDIPOL =      0    1-x, 2-y, 3-z, 4-all directions 
   EPSILON=  1.0000000 bulk dielectric constant

 Exchange correlation treatment:
   GGA     =    --    GGA type
   LEXCH   =     8    internal setting for exchange type
   VOSKOWN=      0    Vosko Wilk Nusair interpolation
   LHFCALC =     F    Hartree Fock is set to
   LHFONE  =     F    Hartree Fock one center treatment
   AEXX    =    0.0000 exact exchange contribution

 Linear response parameters
   LEPSILON=     F    determine dielectric tensor
   LRPA    =     F    only Hartree local field effects (RPA)
   LNABLA  =     F    use nabla operator in PAW spheres
   LVEL    =     F    velocity operator in full k-point grid
   LINTERFAST=   F  fast interpolation
   KINTER  =     0    interpolate to denser k-point grid
   CSHIFT  =0.1000    complex shift for real part using Kramers Kronig
   OMEGAMAX=  -1.0    maximum frequency
   DEG_THRESHOLD= 0.2000000E-02 threshold for treating states as degnerate
   RTIME   =   -0.100 relaxation time in fs
  (WPLASMAI=    0.000 imaginary part of plasma frequency in eV, 0.658/RTIME)
   DFIELD  = 0.0000000 0.0000000 0.0000000 field for delta impulse in time
 
 Orbital magnetization related:
   ORBITALMAG=     F  switch on orbital magnetization
   LCHIMAG   =     F  perturbation theory with respect to B field
   DQ        =  0.001000  dq finite difference perturbation B field
   LLRAUG    =     F  two centre corrections for induced B field



--------------------------------------------------------------------------------------------------------


 Static calculation
 charge density and potential will be updated during run
 spin polarized calculation
 RMM-DIIS sequential band-by-band and
  variant of blocked Davidson during initial phase
 perform sub-space diagonalisation
    before iterative eigenvector-optimisation
 modified Broyden-mixing scheme, WC =      100.0
 initial mixing is a Kerker type mixing with AMIX =  0.4000 and BMIX =      1.0000
 Hartree-type preconditioning will be used
 using additional bands          141
 real space projection scheme for non local part
 use partial core corrections
 calculate Harris-corrections to forces 
   (improved forces if not selfconsistent)
 use gradient corrections 
 use of overlap-Matrix (Vanderbilt PP)
 Fermi weights with tetrahedron method with Bloechl corrections


--------------------------------------------------------------------------------------------------------


  energy-cutoff  :      520.00
  volume of cell :      546.45
      direct lattice vectors                 reciprocal lattice vectors
     7.142000000 -7.142000000  0.000000000     0.093344535 -0.046672267 -0.046672267
     0.000000000  7.142000000 -7.142000000     0.046672267  0.046672267 -0.093344535
     3.571000000  3.571000000  3.571000000     0.093344535  0.093344535  0.093344535

  length of vectors
    10.100313262 10.100313262  6.185153434     0.114323240  0.114323240  0.161677477


 
 k-points in units of 2pi/SCALE and weight: read from INCAR                         
   0.00000000  0.00000000 -0.00000000       0.028
   0.11111111 -0.05555556 -0.05555556       0.056
   0.05555556  0.05555556 -0.11111111       0.056
   0.16666667  0.00000000 -0.16666667       0.056
  -0.05555556  0.11111111 -0.05555556       0.056
   0.08333333  0.08333333  0.08333333       0.056
   0.19444444  0.02777778  0.02777778       0.056
  -0.02777778  0.13888889  0.13888889       0.056
   0.13888889  0.13888889 -0.02777778       0.056
   0.25000000  0.08333333 -0.08333333       0.056
   0.02777778  0.19444444  0.02777778       0.056
   0.02777778  0.02777778  0.19444444       0.056
   0.13888889 -0.02777778  0.13888889       0.056
  -0.08333333  0.08333333  0.25000000       0.056
   0.16666667  0.16666667  0.16666667       0.028
   0.27777778  0.11111111  0.11111111       0.056
   0.22222222  0.22222222  0.05555556       0.056
   0.33333333  0.16666667 -0.00000000       0.056
   0.11111111  0.27777778  0.11111111       0.056
 
 k-points in reciprocal lattice and weights: read from INCAR                         
   0.00000000  0.00000000  0.00000000       0.028
   0.33333333  0.00000000  0.00000000       0.056
   0.00000000  0.33333333  0.00000000       0.056
   0.33333333  0.33333333  0.00000000       0.056
  -0.33333333  0.33333333  0.00000000       0.056
   0.00000000  0.00000000  0.25000000       0.056
   0.33333333  0.00000000  0.25000000       0.056
  -0.33333333  0.00000000  0.25000000       0.056
   0.00000000  0.33333333  0.25000000       0.056
   0.33333333  0.33333333  0.25000000       0.056
  -0.33333333  0.33333333  0.25000000       0.056
   0.00000000 -0.33333333  0.25000000       0.056
   0.33333333 -0.33333333  0.25000000       0.056
  -0.33333333 -0.33333333  0.25000000       0.056
   0.00000000  0.00000000  0.50000000       0.028
   0.33333333  0.00000000  0.50000000       0.056
   0.00000000  0.33333333  0.50000000       0.056
   0.33333333  0.33333333  0.50000000       0.056
  -0.33333333  0.33333333  0.50000000       0.056
 
 position of ions in fractional coordinates (direct lattice) 
   0.99904265  0.00064227  0.99370520
   0.24849107  0.99862824  0.99896811
   0.49902457  0.00192702  0.99811239
   0.99813936  0.25067359  0.99858235
   0.24921521  0.24886210  0.99598295
   0.33446849  0.16514649  0.33084910
   0.74893475  0.25278116  0.00281676
   0.41837538  0.08393963  0.66243229
   0.83203205  0.16588383  0.33720463
   0.66797040  0.08472263  0.66784463
   0.99908587  0.49910803  0.00235378
   0.74816914  0.49871087  0.99893796
   0.58310171  0.41320398  0.33248045
   0.41961001  0.33337142  0.66250709
   0.83119666  0.41475866  0.33794681
   0.91855922  0.33501604  0.66782478
   0.99765759  0.74896938  0.00070614
   0.08195110  0.66570420  0.33468682
   0.75346518  0.75172848  0.99750405
   0.41737268  0.58352435  0.66970407
   0.91550782  0.58461943  0.66693608
   0.16682874  0.83490763  0.66397359
   0.41715304  0.83338794  0.67162322
   0.91985145  0.83263675  0.66683234
   0.74918160  0.00453836  0.00260461
   0.08475828  0.16932674  0.32232280
   0.49319008  0.24543954  0.99767441
   0.17139612  0.08339263  0.66669588
   0.58776094  0.16931254  0.33023748
   0.91693091  0.08581532  0.66237270
   0.24596406  0.49669344  0.00461950
   0.07438391  0.41509612  0.33457500
   0.50297282  0.49962090  0.99521781
   0.33917228  0.41514457  0.33300174
   0.17081393  0.33724166  0.66719918
   0.67264722  0.33598079  0.66891140
   0.24490545  0.75270005  0.00371561
   0.49840313  0.74988260  0.00086577
   0.33208545  0.66262092  0.34116495
   0.16470557  0.58627149  0.67347154
   0.58579436  0.66826103  0.33248656
   0.83088122  0.65877478  0.33162359
   0.66762536  0.58426201  0.66614649
   0.08235464  0.91427086  0.32494122
   0.33394415  0.91584294  0.33734239
   0.58231568  0.91865186  0.34000490
   0.83419442  0.91449412  0.33133394
   0.66841427  0.83351063  0.67095494
 
 position of ions in cartesian coordinates  (Angst):
  10.68368392 -3.58205429  3.54393422
   5.34203834  8.92479482 -3.56488774
   7.12829279  0.01398867  3.55049656
  10.69464885 -1.77246294  1.77562680
   5.33655017  3.55413317  1.77928199
   3.57023612 -0.02783561  0.00198590
   5.35895061 -3.53347032 -1.79530438
   5.35358269 -0.02299437  1.76604885
   7.14653068 -3.55347287  0.01941545
   7.15551776 -1.78068236  1.77978415
   7.14387660 -3.56243637 -3.55622424
   8.91063149  1.78557649  0.00541442
   5.35180009 -0.02612187 -1.76381515
   5.36266752  1.74989681 -0.01512585
   7.14321462 -1.76739222 -1.75539827
   8.94515221 -1.78286312 -0.00788228
   7.12779214 -1.77360964 -5.34661767
   1.78046143  5.36433123 -3.55929271
   8.94333528  3.54968343 -1.80675781
   5.37238890  3.57816848 -1.77601772
   8.92018563  0.01842385 -1.79372324
   3.56254054  7.14246916 -3.59186061
   5.37767354  5.37111621 -3.55369016
   8.95083739  1.75837087 -3.56543335
   5.35995604 -5.30894098 -0.02311189
   1.75635834  1.75500266 -0.05831690
   7.08505888  1.79326098  1.80976609
   3.60488207  1.75225001  1.78518082
   5.37706666 -1.80928044 -0.02995213
   8.91405346 -3.57049463  1.75243987
   1.77317154  1.80720553 -3.53088833
   1.72601721  3.62813395 -1.76984919
   7.14615466  3.52998343 -0.01436968
   3.61151765  1.73174330 -1.77581329
   3.60252134  3.57119514 -0.02601163
   7.19272904 -0.01578903 -0.01089217
   1.76238317  3.63993750 -5.36251530
   3.56268679  1.79915805 -5.35256983
   3.59005433  3.57898430 -3.51413856
   3.58129406  5.41579067 -1.78218411
   5.37105280  1.77628644 -3.58541077
   7.11838146 -0.04495634 -3.52074165
   7.14698942  1.78342804 -1.79399016
   1.74854191  7.10191073 -5.36935738
   3.58967883  5.36057083 -5.33630063
   5.37305612  3.61627046 -5.34685406
   7.14101004  1.75669396 -5.34812350
   7.16979483  3.57509826 -3.55695280
 


--------------------------------------------------------------------------------------------------------


 k-point  1 :   0.0000 0.0000 0.0000  plane waves:   14693
 k-point  2 :   0.3333 0.0000 0.0000  plane waves:   14734
 k-point  3 :   0.0000 0.3333 0.0000  plane waves:   14734
 k-point  4 :   0.3333 0.3333 0.0000  plane waves:   14805
 k-point  5 :  -0.3333 0.3333 0.0000  plane waves:   14734
 k-point  6 :   0.0000 0.0000 0.2500  plane waves:   14729
 k-point  7 :   0.3333 0.0000 0.2500  plane waves:   14700
 k-point  8 :  -0.3333 0.0000 0.2500  plane waves:   14700
 k-point  9 :   0.0000 0.3333 0.2500  plane waves:   14700
 k-point 10 :   0.3333 0.3333 0.2500  plane waves:   14763
 k-point 11 :  -0.3333 0.3333 0.2500  plane waves:   14700
 k-point 12 :   0.0000-0.3333 0.2500  plane waves:   14700
 k-point 13 :   0.3333-0.3333 0.2500  plane waves:   14700
 k-point 14 :  -0.3333-0.3333 0.2500  plane waves:   14763
 k-point 15 :   0.0000 0.0000 0.5000  plane waves:   14748
 k-point 16 :   0.3333 0.0000 0.5000  plane waves:   14662
 k-point 17 :   0.0000 0.3333 0.5000  plane waves:   14662
 k-point 18 :   0.3333 0.3333 0.5000  plane waves:   14580
 k-point 19 :  -0.3333 0.3333 0.5000  plane waves:   14662

 maximum and minimum number of plane-waves per node :      1875     1798

 maximum number of plane-waves:     14805
 maximum index in each direction: 
   IXMAX=   19   IYMAX=   19   IZMAX=   11
   IXMIN=  -19   IYMIN=  -19   IZMIN=  -12


 real space projection operators:
  total allocation   :      51104.67 KBytes
  max/ min on nodes  :       6423.89       6355.41


 parallel 3D FFT for wavefunctions:
    minimum data exchange during FFTs selected (reduces bandwidth)
 parallel 3D FFT for charge:
    minimum data exchange during FFTs selected (reduces bandwidth)


 total amount of memory used by VASP MPI-rank0   203805. kBytes
=======================================================================

   base      :      30000. kBytes
   nonlr-proj:      14815. kBytes
   fftplans  :       4791. kBytes
   grid      :      11842. kBytes
   one-center:        186. kBytes
   wavefun   :     142171. kBytes
 
     INWAV:  cpu time    0.0000: real time    0.0029
 Broyden mixing: mesh for mixing (old mesh)
   NGX = 37   NGY = 37   NGZ = 23
  (NGX  =160   NGY  =160   NGZ  = 96)
  gives a total of  31487 points

 initial charge density was supplied:
 charge density of overlapping atoms calculated
 number of electron     432.0000000 magnetization     192.0000000
 keeping initial charge density in first step


--------------------------------------------------------------------------------------------------------


 Maximum index for non-local projection operator         1042
 Maximum index for augmentation-charges         1156 (set IRDMAX)


--------------------------------------------------------------------------------------------------------


 First call to EWALD:  gamma=   0.217
 Maximum number of real-space cells 3x 3x 3
 Maximum number of reciprocal cells 3x 3x 2

    FEWALD:  cpu time    0.0030: real time    0.0022


--------------------------------------- Iteration      1(   1)  ---------------------------------------


    POTLOK:  cpu time    0.1490: real time    0.1524
    SETDIJ:  cpu time    0.0260: real time    0.0277
     EDDAV:  cpu time   47.3358: real time   47.3547
 BZINTS: Fermi energy: 24.060003;432.000000 electrons
         Band energy:7244.769778;  BLOECHL correction: -0.022865
       DOS:  cpu time    0.1870: real time    0.1866
    --------------------------------------------
      LOOP:  cpu time   47.6977: real time   47.7214

 eigenvalue-minimisations  : 27132
 total energy-change (2. order) : 0.4019149E+04  (-0.1681155E+05)
 number of electron     432.0000000 magnetization     192.0000000
 augmentation part      432.0000000 magnetization     192.0000000

 Free energy of the ion-electron system (eV)
  ---------------------------------------------------
  alpha Z        PSCENC =      2606.78035498
  Ewald energy   TEWEN  =    -35946.01739387
  -Hartree energ DENC   =     -9174.65381346
  -exchange      EXHF   =         0.00000000
  -V(xc)+E(xc)   XCENC  =       946.71575660
  PAW double counting   =     36336.28311682   -38122.33562155
  entropy T*S    EENTRO =         0.00000000
  eigenvalues    EBANDS =      7244.76977773
  atomic energy  EATOM  =     40127.60640254
  Solvation  Ediel_sol  =         0.00000000
  ---------------------------------------------------
  free energy    TOTEN  =      4019.14857979 eV

  energy without entropy =     4019.14857979  energy(sigma->0) =     4019.14857979


--------------------------------------------------------------------------------------------------------




--------------------------------------- Iteration      1(   2)  ---------------------------------------


     EDDAV:  cpu time   47.3368: real time   47.3833
 BZINTS: Fermi energy: 12.329171;432.000000 electrons
         Band energy:3553.000183;  BLOECHL correction: -0.021211
       DOS:  cpu time    0.1870: real time    0.1871
    --------------------------------------------
      LOOP:  cpu time   47.5238: real time   47.5703

 eigenvalue-minimisations  : 27132
 total energy-change (2. order) :-0.3691770E+04  (-0.3364874E+04)
 number of electron     432.0000000 magnetization     192.0000000
 augmentation part      432.0000000 magnetization     192.0000000

 Free energy of the ion-electron system (eV)
  ---------------------------------------------------
  alpha Z        PSCENC =      2606.78035498
  Ewald energy   TEWEN  =    -35946.01739387
  -Hartree energ DENC   =     -9174.65381346
  -exchange      EXHF   =         0.00000000
  -V(xc)+E(xc)   XCENC  =       946.71575660
  PAW double counting   =     36336.28311682   -38122.33562155
  entropy T*S    EENTRO =         0.00000000
  eigenvalues    EBANDS =      3553.00018322
  atomic energy  EATOM  =     40127.60640254
  Solvation  Ediel_sol  =         0.00000000
  ---------------------------------------------------
  free energy    TOTEN  =       327.37898529 eV

  energy without entropy =      327.37898529  energy(sigma->0) =      327.37898529


--------------------------------------------------------------------------------------------------------




--------------------------------------- Iteration      1(   3)  ---------------------------------------


     EDDAV:  cpu time   47.3808: real time   47.4085
 BZINTS: Fermi energy: 10.217203;432.000000 electrons
         Band energy:2932.909756;  BLOECHL correction: -0.062873
       DOS:  cpu time    0.1600: real time    0.1593
    --------------------------------------------
      LOOP:  cpu time   47.5408: real time   47.5678

 eigenvalue-minimisations  : 27132
 total energy-change (2. order) :-0.6200904E+03  (-0.4868173E+03)
 number of electron     432.0000000 magnetization     192.0000000
 augmentation part      432.0000000 magnetization     192.0000000

 Free energy of the ion-electron system (eV)
  ---------------------------------------------------
  alpha Z        PSCENC =      2606.78035498
  Ewald energy   TEWEN  =    -35946.01739387
  -Hartree energ DENC   =     -9174.65381346
  -exchange      EXHF   =         0.00000000
  -V(xc)+E(xc)   XCENC  =       946.71575660
  PAW double counting   =     36336.28311682   -38122.33562155
  entropy T*S    EENTRO =         0.00000000
  eigenvalues    EBANDS =      2932.90975612
  atomic energy  EATOM  =     40127.60640254
  Solvation  Ediel_sol  =         0.00000000
  ---------------------------------------------------
  free energy    TOTEN  =      -292.71144181 eV

  energy without entropy =     -292.71144181  energy(sigma->0) =     -292.71144181


--------------------------------------------------------------------------------------------------------




--------------------------------------- Iteration      1(   4)  ---------------------------------------


     EDDAV:  cpu time   49.8004: real time   49.8403
 BZINTS: Fermi energy: 10.111093;432.000000 electrons
         Band energy:2887.931105;  BLOECHL correction: -0.065523
       DOS:  cpu time    0.1760: real time    0.1757
    --------------------------------------------
      LOOP:  cpu time   49.9764: real time   50.0159

 eigenvalue-minimisations  : 29001
 total energy-change (2. order) :-0.4497865E+02  (-0.4318383E+02)
 number of electron     432.0000000 magnetization     192.0000000
 augmentation part      432.0000000 magnetization     192.0000000

 Free energy of the ion-electron system (eV)
  ---------------------------------------------------
  alpha Z        PSCENC =      2606.78035498
  Ewald energy   TEWEN  =    -35946.01739387
  -Hartree energ DENC   =     -9174.65381346
  -exchange      EXHF   =         0.00000000
  -V(xc)+E(xc)   XCENC  =       946.71575660
  PAW double counting   =     36336.28311682   -38122.33562155
  entropy T*S    EENTRO =         0.00000000
  eigenvalues    EBANDS =      2887.93110452
  atomic energy  EATOM  =     40127.60640254
  Solvation  Ediel_sol  =         0.00000000
  ---------------------------------------------------
  free energy    TOTEN  =      -337.69009341 eV

  energy without entropy =     -337.69009341  energy(sigma->0) =     -337.69009341


--------------------------------------------------------------------------------------------------------




--------------------------------------- Iteration      1(   5)  ---------------------------------------


     EDDAV:  cpu time   53.8548: real time   53.8933
 BZINTS: Fermi energy: 10.109624;432.000000 electrons
         Band energy:2887.283798;  BLOECHL correction: -0.065589
       DOS:  cpu time    0.1660: real time    0.1658
    CHARGE:  cpu time    1.3608: real time    1.3599
    MIXING:  cpu time    0.0020: real time    0.0025
    --------------------------------------------
      LOOP:  cpu time   55.3836: real time   55.4216

 eigenvalue-minimisations  : 32145
 total energy-change (2. order) :-0.6473068E+00  (-0.6462696E+00)
 number of electron     432.0000021 magnetization     144.0055682
 augmentation part      219.1526881 magnetization     120.0731872

 Broyden mixing:
  rms(total) = 0.10298E+02    rms(broyden)= 0.10298E+02
  rms(prec ) = 0.12223E+02
  weight for this iteration     100.00

 Free energy of the ion-electron system (eV)
  ---------------------------------------------------
  alpha Z        PSCENC =      2606.78035498
  Ewald energy   TEWEN  =    -35946.01739387
  -Hartree energ DENC   =     -9174.65381346
  -exchange      EXHF   =         0.00000000
  -V(xc)+E(xc)   XCENC  =       946.71575660
  PAW double counting   =     36336.28311682   -38122.33562155
  entropy T*S    EENTRO =         0.00000000
  eigenvalues    EBANDS =      2887.28379769
  atomic energy  EATOM  =     40127.60640254
  Solvation  Ediel_sol  =         0.00000000
  ---------------------------------------------------
  free energy    TOTEN  =      -338.33740025 eV

  energy without entropy =     -338.33740025  energy(sigma->0) =     -338.33740025


--------------------------------------------------------------------------------------------------------




--------------------------------------- Iteration      1(   6)  ---------------------------------------


    POTLOK:  cpu time    0.1420: real time    0.1419
    SETDIJ:  cpu time    0.0230: real time    0.0233
    EDDIAG:  cpu time    6.9699: real time    6.9706
  RMM-DIIS:  cpu time   33.2489: real time   33.2694
    ORTHCH:  cpu time    1.2738: real time    1.2734
 BZINTS: Fermi energy:  8.498303;432.000000 electrons
         Band energy:1431.437168;  BLOECHL correction: -0.007622
       DOS:  cpu time    0.1900: real time    0.1903
    CHARGE:  cpu time    1.3478: real time    1.3483
    MIXING:  cpu time    0.0040: real time    0.0026
    --------------------------------------------
      LOOP:  cpu time   43.1994: real time   43.2198

 eigenvalue-minimisations  : 31395
 total energy-change (2. order) :-0.1649209E+03  (-0.5644029E+02)
 number of electron     432.0000031 magnetization     133.3989505
 augmentation part      255.3435578 magnetization     106.9480644

 Broyden mixing:
  rms(total) = 0.15682E+02    rms(broyden)= 0.15682E+02
  rms(prec ) = 0.23138E+02
  weight for this iteration     100.00

 eigenvalues of (default mixing * dielectric matrix)
  average eigenvalue GAMMA=   0.2839
  0.2839

 Free energy of the ion-electron system (eV)
  ---------------------------------------------------
  alpha Z        PSCENC =      2606.78035498
  Ewald energy   TEWEN  =    -35946.01739387
  -Hartree energ DENC   =     -7969.08583791
  -exchange      EXHF   =         0.00000000
  -V(xc)+E(xc)   XCENC  =       841.29070495
  PAW double counting   =     38957.02007487   -40552.28979866
  entropy T*S    EENTRO =         0.00000000
  eigenvalues    EBANDS =      1431.43716809
  atomic energy  EATOM  =     40127.60640254
  Solvation  Ediel_sol  =         0.00000000
  ---------------------------------------------------
  free energy    TOTEN  =      -503.25832500 eV

  energy without entropy =     -503.25832500  energy(sigma->0) =     -503.25832500


--------------------------------------------------------------------------------------------------------




--------------------------------------- Iteration      1(   7)  ---------------------------------------


    POTLOK:  cpu time    0.1390: real time    0.1402
    SETDIJ:  cpu time    0.0240: real time    0.0233
    EDDIAG:  cpu time    6.9799: real time    6.9805
  RMM-DIIS:  cpu time   32.1421: real time   32.1613
    ORTHCH:  cpu time    1.2738: real time    1.2741
 BZINTS: Fermi energy:  7.090123;432.000000 electrons
         Band energy:1886.747101;  BLOECHL correction: -0.019921
       DOS:  cpu time    0.1830: real time    0.1826
    CHARGE:  cpu time    1.3558: real time    1.3564
    MIXING:  cpu time    0.0040: real time    0.0027
    --------------------------------------------
      LOOP:  cpu time   42.1016: real time   42.1211

 eigenvalue-minimisations  : 30271
 total energy-change (2. order) : 0.1417059E+03  (-0.1502019E+02)
 number of electron     432.0000031 magnetization     122.1691062
 augmentation part      259.5746185 magnetization      99.0920525

 Broyden mixing:
  rms(total) = 0.10967E+02    rms(broyden)= 0.10967E+02
  rms(prec ) = 0.17259E+02
  weight for this iteration     100.00

 eigenvalues of (default mixing * dielectric matrix)
  average eigenvalue GAMMA=   0.3551
  0.4354  0.2748

 Free energy of the ion-electron system (eV)
  ---------------------------------------------------
  alpha Z        PSCENC =      2606.78035498
  Ewald energy   TEWEN  =    -35946.01739387
  -Hartree energ DENC   =     -8187.39352348
  -exchange      EXHF   =         0.00000000
  -V(xc)+E(xc)   XCENC  =       845.11817824
  PAW double counting   =     39926.42089717   -41620.81443738
  entropy T*S    EENTRO =         0.00000000
  eigenvalues    EBANDS =      1886.74710145
  atomic energy  EATOM  =     40127.60640254
  Solvation  Ediel_sol  =         0.00000000
  ---------------------------------------------------
  free energy    TOTEN  =      -361.55242034 eV

  energy without entropy =     -361.55242034  energy(sigma->0) =     -361.55242034


--------------------------------------------------------------------------------------------------------




--------------------------------------- Iteration      1(   8)  ---------------------------------------


    POTLOK:  cpu time    0.1390: real time    0.1402
    SETDIJ:  cpu time    0.0240: real time    0.0233
    EDDIAG:  cpu time    6.9739: real time    6.9751
  RMM-DIIS:  cpu time   31.5332: real time   31.5478
    ORTHCH:  cpu time    1.2728: real time    1.2739
 BZINTS: Fermi energy:  7.527172;432.000000 electrons
         Band energy:2079.685511;  BLOECHL correction: -0.014165
       DOS:  cpu time    0.1840: real time    0.1836
    CHARGE:  cpu time    1.3738: real time    1.3731
    MIXING:  cpu time    0.0030: real time    0.0027
    --------------------------------------------
      LOOP:  cpu time   41.5037: real time   41.5197

 eigenvalue-minimisations  : 29669
 total energy-change (2. order) :-0.1169193E+02  (-0.9401193E+01)
 number of electron     432.0000019 magnetization      99.6565012
 augmentation part      250.7958543 magnetization      79.9579806

 Broyden mixing:
  rms(total) = 0.12026E+02    rms(broyden)= 0.12026E+02
  rms(prec ) = 0.18926E+02
  weight for this iteration     100.00

 eigenvalues of (default mixing * dielectric matrix)
  average eigenvalue GAMMA=   0.4321
  0.8967  0.2819  0.1178

 Free energy of the ion-electron system (eV)
  ---------------------------------------------------
  alpha Z        PSCENC =      2606.78035498
  Ewald energy   TEWEN  =    -35946.01739387
  -Hartree energ DENC   =     -8328.69834455
  -exchange      EXHF   =         0.00000000
  -V(xc)+E(xc)   XCENC  =       848.30879476
  PAW double counting   =     40701.06978021   -42461.97945955
  entropy T*S    EENTRO =         0.00000000
  eigenvalues    EBANDS =      2079.68551056
  atomic energy  EATOM  =     40127.60640254
  Solvation  Ediel_sol  =         0.00000000
  ---------------------------------------------------
  free energy    TOTEN  =      -373.24435491 eV

  energy without entropy =     -373.24435491  energy(sigma->0) =     -373.24435491


--------------------------------------------------------------------------------------------------------




--------------------------------------- Iteration      1(   9)  ---------------------------------------


    POTLOK:  cpu time    0.1400: real time    0.1403
    SETDIJ:  cpu time    0.0230: real time    0.0233
    EDDIAG:  cpu time    6.9739: real time    6.9753
  RMM-DIIS:  cpu time   31.2263: real time   31.2450
    ORTHCH:  cpu time    1.2728: real time    1.2734
 BZINTS: Fermi energy:  7.879489;432.000000 electrons
         Band energy:2249.943004;  BLOECHL correction: -0.012545
       DOS:  cpu time    0.1810: real time    0.1815
    CHARGE:  cpu time    1.3718: real time    1.3718
    MIXING:  cpu time    0.0040: real time    0.0028
    --------------------------------------------
      LOOP:  cpu time   41.1927: real time   41.2133

 eigenvalue-minimisations  : 29352
 total energy-change (2. order) : 0.2118466E+02  (-0.3620604E+01)
 number of electron     432.0000029 magnetization      92.5577055
 augmentation part      245.2543048 magnetization      72.0994262

 Broyden mixing:
  rms(total) = 0.87315E+01    rms(broyden)= 0.87313E+01
  rms(prec ) = 0.13802E+02
  weight for this iteration     100.00

 eigenvalues of (default mixing * dielectric matrix)
  average eigenvalue GAMMA=   0.4265
  1.0111  0.2900  0.2900  0.1147

 Free energy of the ion-electron system (eV)
  ---------------------------------------------------
  alpha Z        PSCENC =      2606.78035498
  Ewald energy   TEWEN  =    -35946.01739387
  -Hartree energ DENC   =     -8410.02047696
  -exchange      EXHF   =         0.00000000
  -V(xc)+E(xc)   XCENC  =       840.69404729
  PAW double counting   =     41874.39500255   -43695.44063699
  entropy T*S    EENTRO =         0.00000000
  eigenvalues    EBANDS =      2249.94300392
  atomic energy  EATOM  =     40127.60640254
  Solvation  Ediel_sol  =         0.00000000
  ---------------------------------------------------
  free energy    TOTEN  =      -352.05969654 eV

  energy without entropy =     -352.05969654  energy(sigma->0) =     -352.05969654


--------------------------------------------------------------------------------------------------------




--------------------------------------- Iteration      1(  10)  ---------------------------------------


    POTLOK:  cpu time    0.1400: real time    0.1407
    SETDIJ:  cpu time    0.0240: real time    0.0233
    EDDIAG:  cpu time    6.9739: real time    6.9777
  RMM-DIIS:  cpu time   31.1173: real time   31.1342
    ORTHCH:  cpu time    1.2728: real time    1.2743
 BZINTS: Fermi energy:  7.846640;432.000000 electrons
         Band energy:2280.649854;  BLOECHL correction: -0.013960
       DOS:  cpu time    0.1810: real time    0.1796
    CHARGE:  cpu time    1.3718: real time    1.3721
    MIXING:  cpu time    0.0030: real time    0.0030
    --------------------------------------------
      LOOP:  cpu time   41.0838: real time   41.1049

 eigenvalue-minimisations  : 29313
 total energy-change (2. order) : 0.2573148E+02  (-0.2533133E+01)
 number of electron     432.0000019 magnetization      80.4450868
 augmentation part      244.3473216 magnetization      61.9812155

 Broyden mixing:
  rms(total) = 0.57068E+01    rms(broyden)= 0.57066E+01
  rms(prec ) = 0.88435E+01
  weight for this iteration     100.00

 eigenvalues of (default mixing * dielectric matrix)
  average eigenvalue GAMMA=   0.4317
  1.1493  0.4906  0.2781  0.1352  0.1053

 Free energy of the ion-electron system (eV)
  ---------------------------------------------------
  alpha Z        PSCENC =      2606.78035498
  Ewald energy   TEWEN  =    -35946.01739387
  -Hartree energ DENC   =     -8401.80515201
  -exchange      EXHF   =         0.00000000
  -V(xc)+E(xc)   XCENC  =       838.37963900
  PAW double counting   =     42213.59730960   -44045.51922953
  entropy T*S    EENTRO =         0.00000000
  eigenvalues    EBANDS =      2280.64985449
  atomic energy  EATOM  =     40127.60640254
  Solvation  Ediel_sol  =         0.00000000
  ---------------------------------------------------
  free energy    TOTEN  =      -326.32821480 eV

  energy without entropy =     -326.32821480  energy(sigma->0) =     -326.32821480


--------------------------------------------------------------------------------------------------------




--------------------------------------- Iteration      1(  11)  ---------------------------------------


    POTLOK:  cpu time    0.1420: real time    0.1417
    SETDIJ:  cpu time    0.0230: real time    0.0233
    EDDIAG:  cpu time    6.9929: real time    6.9939
  RMM-DIIS:  cpu time   30.8643: real time   30.8814
    ORTHCH:  cpu time    1.2768: real time    1.2782
 BZINTS: Fermi energy:  7.786447;432.000000 electrons
         Band energy:2243.778544;  BLOECHL correction: -0.018613
       DOS:  cpu time    0.1810: real time    0.1796
    CHARGE:  cpu time    1.3568: real time    1.3572
    MIXING:  cpu time    0.0040: real time    0.0030
    --------------------------------------------
      LOOP:  cpu time   40.8408: real time   40.8583

 eigenvalue-minimisations  : 29139
 total energy-change (2. order) :-0.2399888E+02  (-0.1741607E+01)
 number of electron     432.0000029 magnetization      72.3920789
 augmentation part      244.6023475 magnetization      58.3924762

 Broyden mixing:
  rms(total) = 0.91392E+01    rms(broyden)= 0.91390E+01
  rms(prec ) = 0.14540E+02
  weight for this iteration     100.00

 eigenvalues of (default mixing * dielectric matrix)
  average eigenvalue GAMMA=   0.4033
  1.2486  0.4889  0.3090  0.1495  0.1262  0.0974

 Free energy of the ion-electron system (eV)
  ---------------------------------------------------
  alpha Z        PSCENC =      2606.78035498
  Ewald energy   TEWEN  =    -35946.01739387
  -Hartree energ DENC   =     -8372.85729482
  -exchange      EXHF   =         0.00000000
  -V(xc)+E(xc)   XCENC  =       834.21516156
  PAW double counting   =     42756.64032382   -44600.47318999
  entropy T*S    EENTRO =         0.00000000
  eigenvalues    EBANDS =      2243.77854371
  atomic energy  EATOM  =     40127.60640254
  Solvation  Ediel_sol  =         0.00000000
  ---------------------------------------------------
  free energy    TOTEN  =      -350.32709207 eV

  energy without entropy =     -350.32709207  energy(sigma->0) =     -350.32709207


--------------------------------------------------------------------------------------------------------




--------------------------------------- Iteration      1(  12)  ---------------------------------------


    POTLOK:  cpu time    0.1420: real time    0.1433
    SETDIJ:  cpu time    0.0240: real time    0.0233
    EDDIAG:  cpu time    6.9979: real time    6.9993
  RMM-DIIS:  cpu time   31.2792: real time   31.3022
    ORTHCH:  cpu time    1.2758: real time    1.2760
 BZINTS: Fermi energy:  7.516051;432.000000 electrons
         Band energy:2235.869883;  BLOECHL correction: -0.017171
       DOS:  cpu time    0.1800: real time    0.1794
    CHARGE:  cpu time    1.3578: real time    1.3581
    MIXING:  cpu time    0.0040: real time    0.0032
    --------------------------------------------
      LOOP:  cpu time   41.2607: real time   41.2848

 eigenvalue-minimisations  : 29502
 total energy-change (2. order) : 0.2417979E+02  (-0.1470571E+01)
 number of electron     432.0000025 magnetization      71.2901122
 augmentation part      245.7695922 magnetization      56.0063646

 Broyden mixing:
  rms(total) = 0.35203E+01    rms(broyden)= 0.35200E+01
  rms(prec ) = 0.53394E+01
  weight for this iteration     100.00

 eigenvalues of (default mixing * dielectric matrix)
  average eigenvalue GAMMA=   0.3896
  1.1903  0.4705  0.4705  0.2638  0.1384  0.0968  0.0968

 Free energy of the ion-electron system (eV)
  ---------------------------------------------------
  alpha Z        PSCENC =      2606.78035498
  Ewald energy   TEWEN  =    -35946.01739387
  -Hartree energ DENC   =     -8334.50636717
  -exchange      EXHF   =         0.00000000
  -V(xc)+E(xc)   XCENC  =       831.14164404
  PAW double counting   =     43078.86766789   -44925.88949163
  entropy T*S    EENTRO =         0.00000000
  eigenvalues    EBANDS =      2235.86988252
  atomic energy  EATOM  =     40127.60640254
  Solvation  Ediel_sol  =         0.00000000
  ---------------------------------------------------
  free energy    TOTEN  =      -326.14730069 eV

  energy without entropy =     -326.14730069  energy(sigma->0) =     -326.14730069


--------------------------------------------------------------------------------------------------------




--------------------------------------- Iteration      1(  13)  ---------------------------------------


    POTLOK:  cpu time    0.1420: real time    0.1429
    SETDIJ:  cpu time    0.0240: real time    0.0233
    EDDIAG:  cpu time    7.0029: real time    7.0050
  RMM-DIIS:  cpu time   31.9291: real time   31.9509
    ORTHCH:  cpu time    1.2748: real time    1.2757
 BZINTS: Fermi energy:  7.483545;432.000000 electrons
         Band energy:2225.187841;  BLOECHL correction: -0.017565
       DOS:  cpu time    0.1740: real time    0.1743
    CHARGE:  cpu time    1.3648: real time    1.3643
    MIXING:  cpu time    0.0040: real time    0.0033
    --------------------------------------------
      LOOP:  cpu time   41.9156: real time   41.9396

 eigenvalue-minimisations  : 30050
 total energy-change (2. order) : 0.1138055E+00  (-0.3433928E+00)
 number of electron     432.0000022 magnetization      69.9019092
 augmentation part      246.3104359 magnetization      55.6971807

 Broyden mixing:
  rms(total) = 0.32719E+01    rms(broyden)= 0.32718E+01
  rms(prec ) = 0.50616E+01
  weight for this iteration     100.00

 eigenvalues of (default mixing * dielectric matrix)
  average eigenvalue GAMMA=   0.3800
  1.1158  0.5998  0.5998  0.2838  0.1393  0.1078  0.0967  0.0967

 Free energy of the ion-electron system (eV)
  ---------------------------------------------------
  alpha Z        PSCENC =      2606.78035498
  Ewald energy   TEWEN  =    -35946.01739387
  -Hartree energ DENC   =     -8323.44804307
  -exchange      EXHF   =         0.00000000
  -V(xc)+E(xc)   XCENC  =       831.02127132
  PAW double counting   =     43149.57867777   -44996.74260542
  entropy T*S    EENTRO =         0.00000000
  eigenvalues    EBANDS =      2225.18784052
  atomic energy  EATOM  =     40127.60640254
  Solvation  Ediel_sol  =         0.00000000
  ---------------------------------------------------
  free energy    TOTEN  =      -326.03349523 eV

  energy without entropy =     -326.03349523  energy(sigma->0) =     -326.03349523


--------------------------------------------------------------------------------------------------------




--------------------------------------- Iteration      1(  14)  ---------------------------------------


    POTLOK:  cpu time    0.1420: real time    0.1429
    SETDIJ:  cpu time    0.0240: real time    0.0233
    EDDIAG:  cpu time    6.9999: real time    7.0011
  RMM-DIIS:  cpu time   31.2193: real time   31.2531
    ORTHCH:  cpu time    1.2748: real time    1.2752
 BZINTS: Fermi energy:  7.425020;432.000000 electrons
         Band energy:2208.807367;  BLOECHL correction: -0.021166
       DOS:  cpu time    0.1820: real time    0.1817
    CHARGE:  cpu time    1.3598: real time    1.3599
    MIXING:  cpu time    0.0030: real time    0.0034
    --------------------------------------------
      LOOP:  cpu time   41.2047: real time   41.2406

 eigenvalue-minimisations  : 29433
 total energy-change (2. order) :-0.2230717E+01  (-0.2634426E+00)
 number of electron     432.0000024 magnetization      69.3397690
 augmentation part      247.1598195 magnetization      54.9248332

 Broyden mixing:
  rms(total) = 0.31827E+01    rms(broyden)= 0.31826E+01
  rms(prec ) = 0.47783E+01
  weight for this iteration     100.00

 eigenvalues of (default mixing * dielectric matrix)
  average eigenvalue GAMMA=   0.3578
  1.0514  0.6361  0.6361  0.3017  0.1726  0.1422  0.1027  0.1027  0.0748

 Free energy of the ion-electron system (eV)
  ---------------------------------------------------
  alpha Z        PSCENC =      2606.78035498
  Ewald energy   TEWEN  =    -35946.01739387
  -Hartree energ DENC   =     -8309.45575371
  -exchange      EXHF   =         0.00000000
  -V(xc)+E(xc)   XCENC  =       831.42245877
  PAW double counting   =     43249.35204075   -45096.75968930
  entropy T*S    EENTRO =         0.00000000
  eigenvalues    EBANDS =      2208.80736720
  atomic energy  EATOM  =     40127.60640254
  Solvation  Ediel_sol  =         0.00000000
  ---------------------------------------------------
  free energy    TOTEN  =      -328.26421264 eV

  energy without entropy =     -328.26421264  energy(sigma->0) =     -328.26421264


--------------------------------------------------------------------------------------------------------




--------------------------------------- Iteration      1(  15)  ---------------------------------------


    POTLOK:  cpu time    0.1430: real time    0.1433
    SETDIJ:  cpu time    0.0240: real time    0.0233
    EDDIAG:  cpu time    7.0089: real time    7.0108
  RMM-DIIS:  cpu time   31.1633: real time   31.1848
    ORTHCH:  cpu time    1.2748: real time    1.2754
 BZINTS: Fermi energy:  7.402483;432.000000 electrons
         Band energy:2202.564511;  BLOECHL correction: -0.029098
       DOS:  cpu time    0.1750: real time    0.1749
    CHARGE:  cpu time    1.3668: real time    1.3663
    MIXING:  cpu time    0.0040: real time    0.0036
    --------------------------------------------
      LOOP:  cpu time   41.1597: real time   41.1823

 eigenvalue-minimisations  : 29379
 total energy-change (2. order) : 0.2059219E+01  (-0.1552749E+00)
 number of electron     432.0000024 magnetization      69.9331066
 augmentation part      247.3050879 magnetization      56.0281924

 Broyden mixing:
  rms(total) = 0.19095E+01    rms(broyden)= 0.19094E+01
  rms(prec ) = 0.26970E+01
  weight for this iteration     100.00

 eigenvalues of (default mixing * dielectric matrix)
  average eigenvalue GAMMA=   0.3718
  0.9665  0.7404  0.7404  0.4552  0.2696  0.1410  0.1302  0.0973  0.0973  0.0797

 Free energy of the ion-electron system (eV)
  ---------------------------------------------------
  alpha Z        PSCENC =      2606.78035498
  Ewald energy   TEWEN  =    -35946.01739387
  -Hartree energ DENC   =     -8302.17993172
  -exchange      EXHF   =         0.00000000
  -V(xc)+E(xc)   XCENC  =       832.69190545
  PAW double counting   =     43328.22820046   -45175.87904293
  entropy T*S    EENTRO =         0.00000000
  eigenvalues    EBANDS =      2202.56451136
  atomic energy  EATOM  =     40127.60640254
  Solvation  Ediel_sol  =         0.00000000
  ---------------------------------------------------
  free energy    TOTEN  =      -326.20499372 eV

  energy without entropy =     -326.20499372  energy(sigma->0) =     -326.20499372


--------------------------------------------------------------------------------------------------------




--------------------------------------- Iteration      1(  16)  ---------------------------------------


    POTLOK:  cpu time    0.1430: real time    0.1432
    SETDIJ:  cpu time    0.0230: real time    0.0233
    EDDIAG:  cpu time    6.9959: real time    6.9977
  RMM-DIIS:  cpu time   31.5372: real time   31.5589
    ORTHCH:  cpu time    1.2738: real time    1.2753
 BZINTS: Fermi energy:  7.417567;432.000000 electrons
         Band energy:2203.193246;  BLOECHL correction: -0.028887
       DOS:  cpu time    0.1750: real time    0.1748
    CHARGE:  cpu time    1.3548: real time    1.3555
    MIXING:  cpu time    0.0050: real time    0.0038
    --------------------------------------------
      LOOP:  cpu time   41.5077: real time   41.5326

 eigenvalue-minimisations  : 29766
 total energy-change (2. order) :-0.7369961E+00  (-0.5458376E-01)
 number of electron     432.0000025 magnetization      71.5469246
 augmentation part      247.1084500 magnetization      58.1103398

 Broyden mixing:
  rms(total) = 0.18806E+01    rms(broyden)= 0.18805E+01
  rms(prec ) = 0.25816E+01
  weight for this iteration     100.00

 eigenvalues of (default mixing * dielectric matrix)
  average eigenvalue GAMMA=   0.3908
  0.9647  0.9647  0.9314  0.4990  0.2827  0.1408  0.1408  0.1094  0.0947  0.0947
  0.0755

 Free energy of the ion-electron system (eV)
  ---------------------------------------------------
  alpha Z        PSCENC =      2606.78035498
  Ewald energy   TEWEN  =    -35946.01739387
  -Hartree energ DENC   =     -8304.33920942
  -exchange      EXHF   =         0.00000000
  -V(xc)+E(xc)   XCENC  =       833.90326772
  PAW double counting   =     43355.97649263   -45204.04515056
  entropy T*S    EENTRO =         0.00000000
  eigenvalues    EBANDS =      2203.19324618
  atomic energy  EATOM  =     40127.60640254
  Solvation  Ediel_sol  =         0.00000000
  ---------------------------------------------------
  free energy    TOTEN  =      -326.94198980 eV

  energy without entropy =     -326.94198980  energy(sigma->0) =     -326.94198980


--------------------------------------------------------------------------------------------------------




--------------------------------------- Iteration      1(  17)  ---------------------------------------


    POTLOK:  cpu time    0.1420: real time    0.1430
    SETDIJ:  cpu time    0.0240: real time    0.0233
    EDDIAG:  cpu time    7.0019: real time    7.0041
  RMM-DIIS:  cpu time   31.0513: real time   31.0762
    ORTHCH:  cpu time    1.2778: real time    1.2779
 BZINTS: Fermi energy:  7.414343;432.000000 electrons
         Band energy:2207.663607;  BLOECHL correction: -0.064370
       DOS:  cpu time    0.1660: real time    0.1667
    CHARGE:  cpu time    1.3688: real time    1.3687
    MIXING:  cpu time    0.0050: real time    0.0040
    --------------------------------------------
      LOOP:  cpu time   41.0368: real time   41.0639

 eigenvalue-minimisations  : 29313
 total energy-change (2. order) :-0.6319133E+00  (-0.6598024E-01)
 number of electron     432.0000024 magnetization      72.5488679
 augmentation part      246.9276261 magnetization      59.3354187

 Broyden mixing:
  rms(total) = 0.15429E+01    rms(broyden)= 0.15429E+01
  rms(prec ) = 0.20230E+01
  weight for this iteration     100.00

 eigenvalues of (default mixing * dielectric matrix)
  average eigenvalue GAMMA=   0.3957
  1.0548  1.0548  0.9724  0.3893  0.3893  0.2434  0.1436  0.1436  0.1007  0.1007
  0.0779  0.0779

 Free energy of the ion-electron system (eV)
  ---------------------------------------------------
  alpha Z        PSCENC =      2606.78035498
  Ewald energy   TEWEN  =    -35946.01739387
  -Hartree energ DENC   =     -8310.58901312
  -exchange      EXHF   =         0.00000000
  -V(xc)+E(xc)   XCENC  =       836.60051573
  PAW double counting   =     43416.40347586   -45266.02185232
  entropy T*S    EENTRO =         0.00000000
  eigenvalues    EBANDS =      2207.66360710
  atomic energy  EATOM  =     40127.60640254
  Solvation  Ediel_sol  =         0.00000000
  ---------------------------------------------------
  free energy    TOTEN  =      -327.57390310 eV

  energy without entropy =     -327.57390310  energy(sigma->0) =     -327.57390310


--------------------------------------------------------------------------------------------------------




--------------------------------------- Iteration      1(  18)  ---------------------------------------


    POTLOK:  cpu time    0.1420: real time    0.1432
    SETDIJ:  cpu time    0.0240: real time    0.0232
    EDDIAG:  cpu time    7.0069: real time    7.0098
  RMM-DIIS:  cpu time   31.3742: real time   31.3944
    ORTHCH:  cpu time    1.2768: real time    1.2780
 BZINTS: Fermi energy:  7.431595;432.000000 electrons
         Band energy:2204.301475;  BLOECHL correction: -0.072449
       DOS:  cpu time    0.1630: real time    0.1635
    CHARGE:  cpu time    1.3668: real time    1.3671
    MIXING:  cpu time    0.0050: real time    0.0041
    --------------------------------------------
      LOOP:  cpu time   41.3587: real time   41.3831

 eigenvalue-minimisations  : 29670
 total energy-change (2. order) :-0.3269615E+00  (-0.4178328E-01)
 number of electron     432.0000024 magnetization      73.5970837
 augmentation part      246.9896521 magnetization      60.5832704

 Broyden mixing:
  rms(total) = 0.13419E+01    rms(broyden)= 0.13418E+01
  rms(prec ) = 0.16640E+01
  weight for this iteration     100.00

 eigenvalues of (default mixing * dielectric matrix)
  average eigenvalue GAMMA=   0.4239
  1.1682  1.1682  1.0792  0.5184  0.5184  0.2744  0.1507  0.1507  0.1220  0.1013
  0.0992  0.0839  0.0764

 Free energy of the ion-electron system (eV)
  ---------------------------------------------------
  alpha Z        PSCENC =      2606.78035498
  Ewald energy   TEWEN  =    -35946.01739387
  -Hartree energ DENC   =     -8308.06098825
  -exchange      EXHF   =         0.00000000
  -V(xc)+E(xc)   XCENC  =       838.02255376
  PAW double counting   =     43470.42397602   -45320.95724484
  entropy T*S    EENTRO =         0.00000000
  eigenvalues    EBANDS =      2204.30147507
  atomic energy  EATOM  =     40127.60640254
  Solvation  Ediel_sol  =         0.00000000
  ---------------------------------------------------
  free energy    TOTEN  =      -327.90086459 eV

  energy without entropy =     -327.90086459  energy(sigma->0) =     -327.90086459


--------------------------------------------------------------------------------------------------------




--------------------------------------- Iteration      1(  19)  ---------------------------------------


    POTLOK:  cpu time    0.1420: real time    0.1431
    SETDIJ:  cpu time    0.0240: real time    0.0233
    EDDIAG:  cpu time    6.9989: real time    7.0010
  RMM-DIIS:  cpu time   31.9621: real time   31.9841
    ORTHCH:  cpu time    1.2748: real time    1.2758
 BZINTS: Fermi energy:  7.428195;432.000000 electrons
         Band energy:2193.571672;  BLOECHL correction: -0.082611
       DOS:  cpu time    0.1530: real time    0.1529
    CHARGE:  cpu time    1.3548: real time    1.3552
    MIXING:  cpu time    0.0050: real time    0.0043
    --------------------------------------------
      LOOP:  cpu time   41.9146: real time   41.9396

 eigenvalue-minimisations  : 30154
 total energy-change (2. order) :-0.5506485E+00  (-0.3490038E-01)
 number of electron     432.0000025 magnetization      74.4415316
 augmentation part      247.5145857 magnetization      61.2812590

 Broyden mixing:
  rms(total) = 0.11663E+01    rms(broyden)= 0.11663E+01
  rms(prec ) = 0.15334E+01
  weight for this iteration     100.00

 eigenvalues of (default mixing * dielectric matrix)
  average eigenvalue GAMMA=   0.4561
  1.3385  1.3385  1.1357  0.5867  0.5867  0.3703  0.2526  0.1425  0.1425  0.1327
  0.1002  0.1002  0.0804  0.0775

 Free energy of the ion-electron system (eV)
  ---------------------------------------------------
  alpha Z        PSCENC =      2606.78035498
  Ewald energy   TEWEN  =    -35946.01739387
  -Hartree energ DENC   =     -8297.35851242
  -exchange      EXHF   =         0.00000000
  -V(xc)+E(xc)   XCENC  =       838.89075209
  PAW double counting   =     43577.76788183   -45429.69266999
  entropy T*S    EENTRO =         0.00000000
  eigenvalues    EBANDS =      2193.57167172
  atomic energy  EATOM  =     40127.60640254
  Solvation  Ediel_sol  =         0.00000000
  ---------------------------------------------------
  free energy    TOTEN  =      -328.45151312 eV

  energy without entropy =     -328.45151312  energy(sigma->0) =     -328.45151312


--------------------------------------------------------------------------------------------------------




--------------------------------------- Iteration      1(  20)  ---------------------------------------


    POTLOK:  cpu time    0.1430: real time    0.1430
    SETDIJ:  cpu time    0.0240: real time    0.0233
    EDDIAG:  cpu time    6.9879: real time    6.9921
  RMM-DIIS:  cpu time   31.5742: real time   31.5936
    ORTHCH:  cpu time    1.2748: real time    1.2753
 BZINTS: Fermi energy:  7.436044;432.000000 electrons
         Band energy:2189.712051;  BLOECHL correction: -0.102985
       DOS:  cpu time    0.1940: real time    0.1939
    CHARGE:  cpu time    1.3548: real time    1.3554
    MIXING:  cpu time    0.0050: real time    0.0045
    --------------------------------------------
      LOOP:  cpu time   41.5577: real time   41.5811

 eigenvalue-minimisations  : 29765
 total energy-change (2. order) :-0.6276646E+00  (-0.3959476E-01)
 number of electron     432.0000025 magnetization      75.3410897
 augmentation part      247.6736912 magnetization      62.2323747

 Broyden mixing:
  rms(total) = 0.12259E+01    rms(broyden)= 0.12259E+01
  rms(prec ) = 0.17282E+01
  weight for this iteration     100.00

 eigenvalues of (default mixing * dielectric matrix)
  average eigenvalue GAMMA=   0.4874
  1.5421  1.5421  1.1871  0.7071  0.5738  0.5738  0.2673  0.1583  0.1414  0.1414
  0.1182  0.1001  0.1001  0.0811  0.0771

 Free energy of the ion-electron system (eV)
  ---------------------------------------------------
  alpha Z        PSCENC =      2606.78035498
  Ewald energy   TEWEN  =    -35946.01739387
  -Hartree energ DENC   =     -8292.98994681
  -exchange      EXHF   =         0.00000000
  -V(xc)+E(xc)   XCENC  =       840.43294587
  PAW double counting   =     43709.40390549   -45564.00749698
  entropy T*S    EENTRO =         0.00000000
  eigenvalues    EBANDS =      2189.71205106
  atomic energy  EATOM  =     40127.60640254
  Solvation  Ediel_sol  =         0.00000000
  ---------------------------------------------------
  free energy    TOTEN  =      -329.07917772 eV

  energy without entropy =     -329.07917772  energy(sigma->0) =     -329.07917772


--------------------------------------------------------------------------------------------------------




--------------------------------------- Iteration      1(  21)  ---------------------------------------


    POTLOK:  cpu time    0.1440: real time    0.1443
    SETDIJ:  cpu time    0.0240: real time    0.0233
    EDDIAG:  cpu time    6.9699: real time    6.9726
  RMM-DIIS:  cpu time   31.3802: real time   31.4030
    ORTHCH:  cpu time    1.2758: real time    1.2764
 BZINTS: Fermi energy:  7.446088;432.000000 electrons
         Band energy:2194.149016;  BLOECHL correction: -0.131771
       DOS:  cpu time    0.1710: real time    0.1710
    CHARGE:  cpu time    1.3248: real time    1.3250
    MIXING:  cpu time    0.0060: real time    0.0046
    --------------------------------------------
      LOOP:  cpu time   41.2957: real time   41.3201

 eigenvalue-minimisations  : 29525
 total energy-change (2. order) :-0.1245005E+00  (-0.3674699E-01)
 number of electron     432.0000024 magnetization      76.0242171
 augmentation part      247.4168470 magnetization      63.2295301

[...]
   46       -0.011  -0.038   2.581   2.532
   47       -0.008  -0.038   2.619   2.573
   48       -0.008  -0.033   2.607   2.566
--------------------------------------------------
tot         -0.622  -1.834  81.159  78.702
 
    CHARGE:  cpu time    1.3538: real time    1.3536
    FORLOC:  cpu time    0.0250: real time    0.0253
    FORNL :  cpu time   13.8499: real time   13.8595
    STRESS:  cpu time   41.5747: real time   41.5950
    FORCOR:  cpu time    0.1620: real time    0.1625
    FORHAR:  cpu time    0.0390: real time    0.0384
    MIXING:  cpu time    0.0110: real time    0.0109
    OFIELD:  cpu time    0.0000: real time    0.0001

  FORCE on cell =-STRESS in cart. coord.  units (eV):
  Direction    XX          YY          ZZ          XY          YZ          ZX
  --------------------------------------------------------------------------------------
  Alpha Z  2606.78035  2606.78035  2606.78035
  Ewald  -11978.75360-12040.26816-11927.16323   112.80186    54.38895   -49.74075
  Hartree  2761.56982  2706.72868  2815.89231   110.40711    53.17406   -50.97748
  E(xc)   -2277.78705 -2278.38466 -2278.18357    -0.00302     0.05404     0.08976
  Local     922.02521  1032.77948   812.99490  -219.46815  -106.69704   102.80828
  n-local  -794.32268  -796.46915  -796.02198    -0.64653    -0.18227     0.34126
  augment  5157.08691  5161.74576  5159.73747    -2.47504    -0.47793    -1.50039
  Kinetic  3602.96097  3607.68966  3604.72647    -1.65121    -0.63455    -0.11966
  Fock        0.00000     0.00000     0.00000     0.00000     0.00000     0.00000
  -------------------------------------------------------------------------------------
  Total      -0.44005     0.60198    -1.23727    -1.03499    -0.37475     0.90103
  in kB      -1.29023     1.76498    -3.62764    -3.03457    -1.09874     2.64180
  external pressure =       -1.05 kB  Pullay stress =        0.00 kB


 VOLUME and BASIS-vectors are now :
 -----------------------------------------------------------------------------
  energy-cutoff  :      520.00
  volume of cell :      546.45
      direct lattice vectors                 reciprocal lattice vectors
     7.142000000 -7.142000000  0.000000000     0.093344535 -0.046672267 -0.046672267
     0.000000000  7.142000000 -7.142000000     0.046672267  0.046672267 -0.093344535
     3.571000000  3.571000000  3.571000000     0.093344535  0.093344535  0.093344535

  length of vectors
    10.100313262 10.100313262  6.185153434     0.114323240  0.114323240  0.161677477


 FORCES acting on ions
    electron-ion (+dipol)            ewald-force                    non-local-force                 convergence-correction
 -----------------------------------------------------------------------------------------------
   0.221E+02 -.805E+02 0.119E+02   -.221E+02 0.808E+02 -.117E+02   -.380E-01 -.294E+00 -.125E+00   0.499E-03 0.281E-02 -.366E-03
   -.327E+02 -.171E+02 -.196E+02   0.327E+02 0.171E+02 0.197E+02   0.374E-01 0.476E-01 -.141E+00   0.447E-02 -.619E-03 -.608E-03
   -.453E+02 0.310E+02 -.122E+03   0.455E+02 -.310E+02 0.123E+03   -.202E+00 0.408E-01 -.448E+00   -.384E-03 0.152E-04 0.202E-02
   -.566E+02 0.623E+02 -.136E+02   0.566E+02 -.625E+02 0.134E+02   0.136E-01 0.133E+00 0.164E+00   -.482E-03 -.217E-02 0.331E-02
   -.174E+02 -.718E+02 0.695E+02   0.176E+02 0.720E+02 -.698E+02   -.174E+00 -.208E+00 0.313E+00   0.943E-03 -.132E-02 0.879E-03
   0.377E+02 -.496E+02 -.443E+01   -.379E+02 0.496E+02 0.458E+01   0.266E+00 0.694E-03 -.159E+00   0.156E-02 -.150E-02 0.224E-02
   0.359E+02 0.211E+02 -.592E+02   -.361E+02 -.211E+02 0.591E+02   0.227E+00 -.374E-01 0.671E-01   -.577E-02 -.633E-03 0.322E-02
   0.126E+02 0.188E+02 0.263E+02   -.124E+02 -.189E+02 -.264E+02   -.201E+00 0.803E-01 0.105E+00   0.196E-02 -.237E-02 -.252E-02
   -.174E+02 0.973E+02 -.900E+02   0.173E+02 -.977E+02 0.901E+02   0.134E+00 0.422E+00 -.179E+00   -.207E-02 0.181E-03 0.315E-02
   0.133E+02 0.867E+02 -.585E+02   -.132E+02 -.869E+02 0.586E+02   -.415E-01 0.174E+00 -.168E+00   -.407E-02 0.992E-03 0.239E-03
   -.108E+03 0.745E+02 0.231E+02   0.108E+03 -.747E+02 -.232E+02   -.108E+00 0.122E+00 0.119E+00   0.242E-02 -.237E-02 0.181E-02
   0.794E+02 -.768E+02 0.831E+01   -.797E+02 0.767E+02 -.840E+01   0.265E+00 0.827E-01 0.747E-01   -.633E-02 0.176E-02 0.221E-02
   0.409E+02 -.891E+02 0.510E+02   -.409E+02 0.894E+02 -.513E+02   -.208E-01 -.249E+00 0.334E+00   0.395E-03 0.107E-02 0.458E-02
   0.166E+02 -.752E+02 0.441E+02   -.164E+02 0.754E+02 -.441E+02   -.211E+00 -.159E+00 -.405E-01   0.119E-02 -.339E-02 0.760E-03
   -.879E+01 -.963E+01 -.127E+02   0.873E+01 0.950E+01 0.127E+02   0.735E-01 0.124E+00 0.243E-01   -.186E-02 0.291E-02 0.680E-02
   -.562E+02 0.101E+03 -.174E+01   0.564E+02 -.101E+03 0.171E+01   -.280E+00 0.810E-01 0.386E-01   -.450E-02 -.186E-02 0.199E-02
   -.409E+02 -.409E+02 -.205E+01   0.408E+02 0.409E+02 0.209E+01   0.391E-02 0.400E-01 -.427E-01   0.415E-02 0.472E-02 -.172E-02
   -.905E+02 0.622E+02 0.274E+02   0.908E+02 -.623E+02 -.274E+02   -.314E+00 0.412E-01 0.322E-01   0.534E-02 -.192E-02 -.301E-02
   0.781E+02 -.142E+03 -.119E+02   -.785E+02 0.142E+03 0.121E+02   0.319E+00 -.460E+00 -.167E+00   -.268E-02 0.547E-02 -.127E-02
   0.109E+02 -.109E+02 0.226E+02   -.109E+02 0.109E+02 -.226E+02   -.525E-01 0.458E-01 0.593E-02   0.274E-04 0.447E-03 -.379E-02
   0.230E+02 0.355E+01 0.257E+02   -.231E+02 -.345E+01 -.256E+02   0.907E-01 -.104E+00 -.225E-01   -.593E-02 -.183E-02 0.182E-02
   -.567E+01 0.503E+02 0.312E+02   0.569E+01 -.503E+02 -.311E+02   -.307E-01 0.259E-01 -.293E-01   0.545E-02 -.348E-02 -.597E-02
   0.819E+00 0.106E+03 -.571E+02   -.973E+00 -.106E+03 0.572E+02   0.140E+00 0.171E+00 -.481E-01   0.100E-02 -.245E-02 -.223E-02
   0.111E+03 -.493E+02 0.112E+03   -.111E+03 0.494E+02 -.113E+03   0.301E+00 -.655E-01 0.287E+00   -.285E-02 0.357E-02 -.412E-02
   0.201E+02 0.347E+02 -.872E+02   -.204E+02 -.349E+02 0.876E+02   0.360E+00 0.240E+00 -.399E+00   -.190E-02 -.139E-04 0.208E-02
   -.453E+02 -.488E+02 -.334E+02   0.457E+02 0.492E+02 0.338E+02   -.392E+00 -.376E+00 -.395E+00   0.771E-03 -.383E-03 0.684E-03
   -.402E+01 -.292E+02 0.263E+02   0.412E+01 0.293E+02 -.263E+02   -.908E-01 -.460E-01 0.418E-01   -.135E-02 -.240E-02 0.457E-03
   0.829E+02 -.402E+02 0.721E+02   -.833E+02 0.405E+02 -.724E+02   0.405E+00 -.275E+00 0.271E+00   0.112E-02 -.112E-02 -.217E-02
   0.377E+02 0.125E+02 -.536E+02   -.377E+02 -.126E+02 0.539E+02   0.585E-01 0.611E-01 -.262E+00   -.292E-03 0.167E-02 0.359E-02
   0.516E+01 0.676E+02 -.460E+01   -.517E+01 -.678E+02 0.466E+01   0.230E-01 0.252E+00 -.681E-01   -.121E-02 0.369E-03 0.586E-03
   -.898E+02 0.129E+01 0.278E+02   0.901E+02 -.108E+01 -.283E+02   -.321E+00 -.219E+00 0.453E+00   0.362E-02 -.293E-03 -.870E-03
   -.133E+03 0.882E+02 0.334E+01   0.133E+03 -.886E+02 -.329E+01   -.812E+00 0.368E+00 -.503E-01   0.316E-02 -.151E-02 0.122E-02
   0.199E+02 -.980E+02 0.257E+02   -.199E+02 0.985E+02 -.257E+02   -.418E-01 -.440E+00 0.131E-01   -.564E-03 0.740E-03 -.680E-03
   0.364E+02 -.718E+02 0.641E+02   -.368E+02 0.721E+02 -.645E+02   0.400E+00 -.335E+00 0.437E+00   0.656E-03 0.119E-02 -.242E-03
   0.195E+02 0.336E+02 0.412E+02   -.199E+02 -.337E+02 -.413E+02   0.443E+00 0.795E-01 0.764E-01   -.161E-03 -.212E-02 -.692E-03
   0.481E+02 -.370E+02 -.551E+01   -.481E+02 0.370E+02 0.542E+01   0.201E-01 -.121E-01 0.759E-01   -.456E-02 -.709E-03 0.253E-02
   -.931E+02 0.832E+02 -.579E+02   0.933E+02 -.836E+02 0.582E+02   -.226E+00 0.365E+00 -.243E+00   0.643E-02 -.119E-02 -.218E-02
   -.241E+02 -.149E+02 -.660E+02   0.243E+02 0.151E+02 0.663E+02   -.218E+00 -.118E+00 -.244E+00   0.645E-03 0.142E-02 -.167E-02
   -.934E+01 0.780E+02 0.122E+02   0.908E+01 -.784E+02 -.125E+02   0.271E+00 0.388E+00 0.292E+00   0.278E-02 0.375E-03 -.201E-02
   -.665E+02 0.979E+02 -.575E+01   0.668E+02 -.984E+02 0.601E+01   -.239E+00 0.490E+00 -.257E+00   0.316E-02 -.452E-02 -.293E-02
   0.346E+02 -.506E+02 0.329E+02   -.343E+02 0.509E+02 -.330E+02   -.231E+00 -.297E+00 0.978E-01   -.109E-02 0.294E-02 -.124E-02
   0.242E+02 -.111E+03 0.453E+02   -.242E+02 0.112E+03 -.455E+02   0.178E-01 -.509E+00 0.148E+00   -.166E-02 0.250E-02 -.983E-03
   0.635E+02 -.577E+02 0.474E+02   -.636E+02 0.578E+02 -.477E+02   0.130E+00 -.754E-01 0.265E+00   -.317E-02 0.102E-02 0.125E-02
   -.172E+01 -.756E+02 0.117E+02   0.159E+01 0.760E+02 -.118E+02   0.140E+00 -.322E+00 0.866E-01   0.188E-02 0.106E-03 -.265E-02
   -.859E+01 0.739E+02 -.177E+02   0.873E+01 -.744E+02 0.178E+02   -.147E+00 0.415E+00 -.134E+00   0.275E-02 -.192E-02 -.964E-03
   0.320E+02 0.825E+02 -.587E+02   -.322E+02 -.830E+02 0.590E+02   0.159E+00 0.468E+00 -.297E+00   -.178E-02 0.143E-02 0.116E-02
   0.173E+02 -.411E+02 -.266E+02   -.173E+02 0.414E+02 0.269E+02   0.132E-01 -.245E+00 -.237E+00   -.183E-02 0.134E-02 -.541E-03
   0.308E+02 0.215E+02 0.652E+01   -.308E+02 -.216E+02 -.685E+01   -.871E-02 0.148E+00 0.335E+00   -.205E-02 0.268E-02 -.316E-03
 -----------------------------------------------------------------------------------------------
   0.885E-01 -.575E-01 -.485E-02   0.909E-12 0.284E-12 0.739E-12   -.896E-01 0.589E-01 0.229E-02   -.217E-02 -.388E-03 0.283E-02
 
 
 POSITION                                       TOTAL-FORCE (eV/Angst)
 -----------------------------------------------------------------------------------
     10.68368     -3.58205      3.54393         0.004168      0.001002     -0.011103
      5.34204      8.92479     -3.56489         0.004146     -0.004125      0.003256
      7.12829      0.01399      3.55050         0.012243     -0.001156      0.009942
     10.69465     -1.77246      1.77563         0.000796     -0.003435     -0.001049
      5.33655      3.55413      1.77928         0.011714     -0.008409     -0.000592
      3.57024     -0.02784      0.00199        -0.001600     -0.002987     -0.008589
      5.35895     -3.53347     -1.79530        -0.009353     -0.010849     -0.003794
      5.35358     -0.02299      1.76605        -0.012501      0.014648     -0.004095
      7.14653     -3.55347      0.01942         0.004038      0.002055      0.011107
      7.15552     -1.78068      1.77978         0.010439     -0.008364     -0.012331
      7.14388     -3.56244     -3.55622         0.004988     -0.008152     -0.003707
      8.91063      1.78558      0.00541        -0.002859      0.000631     -0.018224
      5.35180     -0.02612     -1.76382        -0.022831      0.013396      0.002071
      5.36267      1.74990     -0.01513        -0.010201      0.008784     -0.005298
      7.14321     -1.76739     -1.75540         0.009211     -0.006168      0.012904
      8.94515     -1.78286     -0.00788        -0.013582      0.003774      0.010087
      7.12779     -1.77361     -5.34662         0.004578      0.005413     -0.000692
      1.78046      5.36433     -3.55929        -0.006053     -0.001223     -0.005768
      8.94334      3.54968     -1.80676        -0.013901     -0.009810     -0.001423
      5.37239      3.57817     -1.77602         0.012001     -0.010113      0.010104
      8.92019      0.01842     -1.79372        -0.001008     -0.006288     -0.000342
      3.56254      7.14247     -3.59186        -0.000989      0.000863      0.007449
      5.37767      5.37112     -3.55369        -0.012244     -0.000515      0.014238
      8.95084      1.75837     -3.56543        -0.005172     -0.004406      0.002726
      5.35996     -5.30894     -0.02311        -0.002989     -0.010707      0.009864
      1.75636      1.75500     -0.05832        -0.007768      0.013928     -0.008594
      7.08506      1.79326      1.80977         0.008439      0.004991     -0.001750
      3.60488      1.75225      1.78518        -0.007148      0.019306     -0.007030
      5.37707     -1.80928     -0.02995        -0.002968     -0.008546      0.015237
      8.91405     -3.57049      1.75244         0.007851      0.011426     -0.008172
      1.77317      1.80721     -3.53089         0.021699     -0.007622      0.009509
      1.72602      3.62813     -1.76985        -0.001158      0.000824      0.001336
      7.14615      3.52998     -0.01437        -0.000741      0.012621      0.000261
      3.61152      1.73174     -1.77581        -0.014095      0.001937     -0.018303
      3.60252      3.57120     -0.02601         0.001226     -0.003495      0.003919
      7.19273     -0.01579     -0.01089         0.002919      0.004365     -0.003455
      1.76238      3.63994     -5.36252         0.003031     -0.016759      0.000891
      3.56269      1.79916     -5.35257         0.001319      0.005346      0.009430
      3.59005      3.57898     -3.51414         0.015295      0.003631     -0.016000
      3.58129      5.41579     -1.78218         0.005575     -0.004297     -0.006854
      5.37105      1.77629     -3.58541         0.012837      0.003346      0.000182
      7.11838     -0.04496     -3.52074        -0.001694      0.021646     -0.011328
      7.14699      1.78343     -1.79399        -0.003445      0.002820      0.003543
      1.74854      7.10191     -5.36936         0.009941      0.001624      0.002536
      3.58968      5.36057     -5.33630        -0.002040     -0.026845     -0.001872
      5.37306      3.61627     -5.34685        -0.003294     -0.008499      0.014154
      7.14101      1.75669     -5.34812        -0.006674      0.005960      0.006212
      7.16979      3.57510     -3.55695        -0.002147      0.008435     -0.000592
 -----------------------------------------------------------------------------------
    total drift:                               -0.003313      0.000973      0.000273


--------------------------------------------------------------------------------------------------------



  FREE ENERGIE OF THE ION-ELECTRON SYSTEM (eV)
  ---------------------------------------------------
  free  energy   TOTEN  =      -329.41668141 eV

  energy  without entropy=     -329.41668141  energy(sigma->0) =     -329.41668141
 


--------------------------------------------------------------------------------------------------------


    POTLOK:  cpu time    0.1640: real time    0.1646


--------------------------------------------------------------------------------------------------------


     LOOP+:  cpu time 1844.7316: real time 1845.8507
    4ORBIT:  cpu time    0.0000: real time    0.0000
 


 total charge     
 
# of ion       s       p       d       tot
------------------------------------------
    1        0.504   0.503   8.313   9.320
    2        0.505   0.503   8.327   9.336
    3        0.506   0.510   8.308   9.324
    4        0.507   0.507   8.311   9.325
    5        0.510   0.514   8.319   9.343
    6        0.511   0.516   8.308   9.334
    7        0.500   0.494   8.320   9.314
    8        0.502   0.502   8.308   9.312
    9        0.514   0.515   8.322   9.352
   10        0.505   0.507   8.309   9.320
   11        0.499   0.496   8.308   9.303
   12        0.504   0.503   8.313   9.320
   13        0.517   0.527   8.313   9.357
   14        0.511   0.517   8.307   9.335
   15        0.509   0.509   8.324   9.341
   16        0.504   0.504   8.317   9.325
   17        0.498   0.495   8.306   9.299
   18        0.510   0.515   8.318   9.342
   19        0.510   0.514   8.313   9.337
   20        0.518   0.529   8.308   9.354
   21        0.501   0.495   8.323   9.319
   22        0.504   0.500   8.317   9.322
   23        0.507   0.509   8.312   9.328
   24        0.505   0.506   8.312   9.324
   25        0.468   0.493   6.183   7.144
   26        0.471   0.499   6.189   7.158
   27        0.471   0.500   6.161   7.132
   28        0.469   0.492   6.151   7.112
   29        0.476   0.505   6.185   7.166
   30        0.470   0.494   6.185   7.149
   31        0.476   0.506   6.198   7.180
   32        0.477   0.506   6.185   7.168
   33        0.472   0.501   6.194   7.167
   34        0.475   0.500   6.199   7.174
   35        0.472   0.500   6.190   7.162
   36        0.471   0.499   6.165   7.136
   37        0.472   0.497   6.182   7.150
   38        0.473   0.501   6.186   7.159
   39        0.477   0.507   6.200   7.184
   40        0.472   0.499   6.187   7.158
   41        0.481   0.510   6.221   7.212
   42        0.473   0.501   6.180   7.154
   43        0.477   0.502   6.199   7.178
   44        0.471   0.496   6.179   7.146
   45        0.474   0.499   6.184   7.156
   46        0.479   0.510   6.207   7.196
   47        0.475   0.505   6.197   7.178
   48        0.476   0.504   6.202   7.182
--------------------------------------------------
tot         23.527  24.216 348.045 395.788
 


 magnetization (x)
 
# of ion       s       p       d       tot
------------------------------------------
    1       -0.022  -0.049   0.719   0.649
    2       -0.020  -0.043   0.679   0.617
    3       -0.023  -0.055   0.737   0.658
    4       -0.020  -0.046   0.735   0.670
    5       -0.023  -0.052   0.711   0.636
    6       -0.023  -0.052   0.762   0.687
    7       -0.018  -0.040   0.685   0.627
    8       -0.019  -0.046   0.747   0.682
    9       -0.024  -0.048   0.701   0.629
   10       -0.020  -0.047   0.737   0.669
   11       -0.016  -0.039   0.731   0.675
   12       -0.020  -0.044   0.723   0.660
   13       -0.028  -0.060   0.741   0.653
   14       -0.022  -0.053   0.776   0.701
   15       -0.018  -0.041   0.691   0.633
   16       -0.018  -0.043   0.709   0.649
   17       -0.014  -0.038   0.733   0.680
   18       -0.024  -0.052   0.710   0.634
   19       -0.026  -0.055   0.714   0.634
   20       -0.030  -0.065   0.754   0.659
   21       -0.017  -0.036   0.679   0.625
   22       -0.020  -0.042   0.703   0.641
   23       -0.023  -0.053   0.730   0.654
   24       -0.024  -0.053   0.715   0.638
   25       -0.002  -0.025   2.670   2.643
   26       -0.007  -0.035   2.645   2.602
   27        0.004  -0.018   2.768   2.754
   28        0.001  -0.020   2.782   2.762
   29       -0.001  -0.022   2.685   2.661
   30       -0.004  -0.027   2.667   2.636
   31       -0.010  -0.037   2.627   2.580
   32       -0.005  -0.030   2.666   2.630
   33       -0.003  -0.026   2.651   2.623
   34       -0.006  -0.030   2.619   2.583
   35       -0.007  -0.034   2.651   2.610
   36        0.003  -0.017   2.746   2.732
   37       -0.002  -0.024   2.682   2.655
   38       -0.007  -0.035   2.666   2.624
   39       -0.012  -0.042   2.607   2.553
   40       -0.002  -0.026   2.668   2.640
   41       -0.014  -0.042   2.525   2.470
   42        0.000  -0.022   2.691   2.669
   43       -0.003  -0.020   2.644   2.620
   44       -0.002  -0.023   2.690   2.665
   45       -0.001  -0.021   2.680   2.658
   46       -0.011  -0.038   2.581   2.532
   47       -0.008  -0.038   2.619   2.573
   48       -0.008  -0.033   2.607   2.566
--------------------------------------------------
tot         -0.622  -1.834  81.159  78.702
 
 BZINTS: Fermi energy:  7.468861;432.000000 electrons
         Band energy:2186.011491;  BLOECHL correction: -0.181865

 total amount of memory used by VASP MPI-rank0   203805. kBytes
=======================================================================

   base      :      30000. kBytes
   nonlr-proj:      14815. kBytes
   fftplans  :       4791. kBytes
   grid      :      11842. kBytes
   one-center:        186. kBytes
   wavefun   :     142171. kBytes
 
  
  
 General timing and accounting informations for this job:
 ========================================================
  
                  Total CPU time used (sec):     1888.936
                            User time (sec):     1868.843
                          System time (sec):       20.093
                         Elapsed time (sec):     1895.410
  
                   Maximum memory used (kb):      297628.
                   Average memory used (kb):           0.
  
                          Minor page faults:       105538
                          Major page faults:            0
                 Voluntary context switches:         6774
