SQS-NiFe                                
           1
     7.142000   -7.142000    0.000000
     0.000000    7.142000   -7.142000
     3.571000    3.571000    3.571000
   Ni   Fe
  24  24
Direct configuration=     1
   0.99904265  0.00064227  0.99370520
   0.24849107  0.99862824  0.99896811
   0.49902457  0.00192702  0.99811239
   0.99813936  0.25067359  0.99858235
   0.24921521  0.24886210  0.99598295
   0.33446849  0.16514649  0.33084910
   0.74893475  0.25278116  0.00281676
   0.41837538  0.08393963  0.66243229
   0.83203205  0.16588383  0.33720463
   0.66797040  0.08472263  0.66784463
   0.99908587  0.49910803  0.00235378
   0.74816914  0.49871087  0.99893796
   0.58310171  0.41320398  0.33248045
   0.41961001  0.33337142  0.66250709
   0.83119666  0.41475866  0.33794681
   0.91855922  0.33501604  0.66782478
   0.99765759  0.74896938  0.00070614
   0.08195110  0.66570420  0.33468682
   0.75346518  0.75172848  0.99750405
   0.41737268  0.58352435  0.66970407
   0.91550782  0.58461943  0.66693608
   0.16682874  0.83490763  0.66397359
   0.41715304  0.83338794  0.67162322
   0.91985145  0.83263675  0.66683234
   0.74918160  0.00453836  0.00260461
   0.08475828  0.16932674  0.32232280
   0.49319008  0.24543954  0.99767441
   0.17139612  0.08339263  0.66669588
   0.58776094  0.16931254  0.33023748
   0.91693091  0.08581532  0.66237270
   0.24596406  0.49669344  0.00461950
   0.07438391  0.41509612  0.33457500
   0.50297282  0.49962090  0.99521781
   0.33917228  0.41514457  0.33300174
   0.17081393  0.33724166  0.66719918
   0.67264722  0.33598079  0.66891140
   0.24490545  0.75270005  0.00371561
   0.49840313  0.74988260  0.00086577
   0.33208545  0.66262092  0.34116495
   0.16470557  0.58627149  0.67347154
   0.58579436  0.66826103  0.33248656
   0.83088122  0.65877478  0.33162359
   0.66762536  0.58426201  0.66614649
   0.08235464  0.91427086  0.32494122
   0.33394415  0.91584294  0.33734239
   0.58231568  0.91865186  0.34000490
   0.83419442  0.91449412  0.33133394
   0.66841427  0.83351063  0.67095494
