       N       E                     dE             d eps       ncg     rms          rms(c)
DAV:   1     0.499253066285E+04    0.49925E+04   -0.26592E+05 32169   0.164E+03
DAV:   2     0.163494662788E+03   -0.48290E+04   -0.45747E+04 32160   0.377E+02
DAV:   3    -0.373376878277E+03   -0.53687E+03   -0.46754E+03 34116   0.163E+02
DAV:   4    -0.449751923611E+03   -0.76375E+02   -0.66404E+02 50523   0.455E+01
DAV:   5    -0.454474153467E+03   -0.47222E+01   -0.46508E+01 36402   0.123E+01
RMM:   6    -0.454564957677E+03   -0.90804E-01   -0.90795E-01 32798   0.187E+00
RMM:   7    -0.454581827426E+03   -0.16870E-01   -0.17876E-01 49455   0.482E-01
RMM:   8    -0.454581295553E+03    0.53187E-03   -0.66228E-03 60497   0.918E-02
RMM:   9    -0.454581516279E+03   -0.22073E-03   -0.26261E-03 53441   0.327E-02
RMM:  10    -0.454581511213E+03    0.50667E-05   -0.35192E-04 41161   0.102E-02
RMM:  11    -0.454581522535E+03   -0.11322E-04   -0.17569E-04 25002   0.483E-03
RMM:  12    -0.454581523088E+03   -0.55367E-06   -0.40173E-05 20655   0.312E-03
RMM:  13    -0.454581523378E+03   -0.28961E-06   -0.13279E-05 19717   0.204E-03
RMM:  14    -0.454581523479E+03   -0.10070E-06   -0.41537E-06 18841   0.148E-03
   1 F= -.47032131E+03 E0= -.47032131E+03  d E =0.000000E+00  mag=    84.1875
