SQS-NiFe                                
           1
    10.100310    0.000000    0.000000
    -5.050155    8.747125    0.000000
     0.000000    0.000000   21.253800
   Ni   Fe   O    H 
  33  31   5   1
Direct configuration=     1
   0.99904300  0.00064200  0.19052300
   0.24849100  0.99862800  0.19205500
   0.49902500  0.00192700  0.19180600
   0.99813900  0.25067400  0.19194200
   0.24921500  0.24886200  0.19118600
   0.33213842  0.16462077  0.28726279
   0.74893500  0.25278100  0.19317500
   0.41837500  0.08394000  0.09411800
   0.41636741  0.08563779  0.38215504
   0.83134024  0.16630610  0.28950766
   0.66797000  0.08472300  0.09569300
   0.66707419  0.08675463  0.38359805
   0.99908600  0.49910800  0.19304000
   0.74816900  0.49871100  0.19204600
   0.58352175  0.41869547  0.28636674
   0.41961000  0.33337100  0.09414000
   0.41434936  0.32967730  0.38116201
   0.83008619  0.41621812  0.28743072
   0.91855900  0.33501600  0.09568700
   0.91372671  0.33198226  0.38452284
   0.99765800  0.74896900  0.19256000
   0.08275856  0.66575174  0.28695096
   0.75346500  0.75172800  0.19162900
   0.41737300  0.58352400  0.09623400
   0.41165536  0.58104587  0.38293474
   0.91550800  0.58461900  0.09542900
   0.90958102  0.58590542  0.38410172
   0.16682900  0.83490800  0.09456700
   0.16476467  0.83632828  0.37717516
   0.41715300  0.83338800  0.09679300
   0.41330530  0.83211795  0.38503664
   0.91985100  0.83263700  0.09539800
   0.91604883  0.83419585  0.38059716
   0.74918200  0.00453800  0.19311300
   0.07652111  0.16072379  0.28444255
   0.49319000  0.24544000  0.19167800
   0.17139600  0.08339300  0.09535900
   0.17547189  0.08577017  0.38398097
   0.58629187  0.16665921  0.28552012
   0.91693100  0.08581500  0.09410100
   0.91377745  0.08766313  0.38343896
   0.24596400  0.49669300  0.19369900
   0.07662368  0.41770568  0.28727633
   0.50297300  0.49962100  0.19096300
   0.33609911  0.41670941  0.28539469
   0.17081400  0.33724200  0.09550500
   0.16426107  0.33148442  0.37670371
   0.67264700  0.33598100  0.09600300
   0.66613890  0.33571425  0.37888749
   0.24490500  0.75270000  0.19343600
   0.49840300  0.74988300  0.19260700
   0.34801431  0.67263583  0.28869782
   0.16470600  0.58627100  0.09733100
   0.17042142  0.59012574  0.38473815
   0.58402547  0.67213661  0.28783437
   0.82874235  0.66129286  0.28818176
   0.66762500  0.58426200  0.09519900
   0.66725317  0.58693901  0.38880608
   0.08157571  0.91629959  0.28476677
   0.33383458  0.91414193  0.28782858
   0.58324972  0.91023107  0.28854332
   0.81991508  0.91029115  0.28749467
   0.66841400  0.83351100  0.09659800
   0.66547531  0.83314186  0.39017090
   0.00675460  0.01237129  0.43583370
   0.49423242  0.49190279  0.43715366
   0.00250521  0.50406314  0.43613889
   0.49876807  0.00425390  0.43616921
   0.68224547  0.82929106  0.47420310
   0.78388931  0.88699553  0.49303272
