       N       E                     dE             d eps       ncg     rms          rms(c)
DAV:   1    -0.496455350042E+03   -0.49646E+03   -0.13247E-01  8472   0.278E+00    0.114E+00
RMM:   2    -0.496889173265E+03   -0.43382E+00   -0.20592E-01  8004   0.142E+00    0.699E+00
RMM:   3    -0.496706565844E+03    0.18261E+00   -0.78689E-02  7881   0.775E-01    0.375E+00
RMM:   4    -0.496659038780E+03    0.47527E-01   -0.47035E-02  7684   0.552E-01    0.250E+00
RMM:   5    -0.496667003610E+03   -0.79648E-02   -0.27125E-02  7828   0.412E-01    0.301E+00
RMM:   6    -0.496645515252E+03    0.21488E-01   -0.91752E-03  7798   0.277E-01    0.979E-01
RMM:   7    -0.496644904855E+03    0.61040E-03   -0.42887E-03  7881   0.170E-01    0.103E+00
RMM:   8    -0.496643941059E+03    0.96380E-03   -0.19193E-03  8085   0.104E-01    0.847E-01
RMM:   9    -0.496642578167E+03    0.13629E-02   -0.22732E-03  7796   0.114E-01    0.990E-01
RMM:  10    -0.496639983739E+03    0.25944E-02   -0.18869E-03  7853   0.111E-01    0.694E-01
RMM:  11    -0.496637312843E+03    0.26709E-02   -0.21352E-03  7752   0.108E-01    0.835E-01
RMM:  12    -0.496635713744E+03    0.15991E-02   -0.95353E-04  7869   0.819E-02    0.767E-01
RMM:  13    -0.496635906950E+03   -0.19321E-03   -0.48221E-04  8334   0.454E-02    0.891E-01
RMM:  14    -0.496635992023E+03   -0.85073E-04   -0.89830E-05 10340   0.128E-02    0.914E-01
RMM:  15    -0.496632364106E+03    0.36279E-02   -0.85593E-04  7740   0.689E-02    0.665E-01
RMM:  16    -0.496629631991E+03    0.27321E-02   -0.91841E-04  7730   0.751E-02    0.448E-01
RMM:  17    -0.496627414081E+03    0.22179E-02   -0.11541E-03  7815   0.740E-02    0.363E-01
RMM:  18    -0.496626580485E+03    0.83360E-03   -0.66728E-04  7765   0.623E-02    0.218E-01
RMM:  19    -0.496628249738E+03   -0.16693E-02   -0.49031E-04  7835   0.496E-02    0.232E-01
RMM:  20    -0.496629516419E+03   -0.12667E-02   -0.27967E-04  7812   0.431E-02    0.125E-01
RMM:  21    -0.496633182292E+03   -0.36659E-02   -0.26630E-04  7792   0.352E-02    0.158E-01
RMM:  22    -0.496635727312E+03   -0.25450E-02   -0.18160E-04  7779   0.315E-02    0.883E-02
RMM:  23    -0.496639376044E+03   -0.36487E-02   -0.24323E-04  7895   0.302E-02    0.132E-01
RMM:  24    -0.496642976698E+03   -0.36007E-02   -0.25083E-04  7895   0.281E-02    0.776E-02
RMM:  25    -0.496644986763E+03   -0.20101E-02   -0.17238E-04  8070   0.241E-02    0.102E-01
RMM:  26    -0.496647651518E+03   -0.26648E-02   -0.22907E-04  7871   0.219E-02    0.940E-02
RMM:  27    -0.496648344954E+03   -0.69344E-03   -0.73437E-05  8491   0.148E-02    0.106E-01
RMM:  28    -0.496649180714E+03   -0.83576E-03   -0.54320E-05  8020   0.106E-02    0.125E-01
RMM:  29    -0.496649241209E+03   -0.60495E-04   -0.86720E-06  7465   0.463E-03    0.131E-01
RMM:  30    -0.496649216256E+03    0.24953E-04   -0.22849E-06  4853   0.381E-03    0.115E-01
RMM:  31    -0.496649324907E+03   -0.10865E-03   -0.73612E-06  7465   0.645E-03    0.104E-01
RMM:  32    -0.496649690229E+03   -0.36532E-03   -0.18443E-05  7777   0.842E-03    0.764E-02
RMM:  33    -0.496650028563E+03   -0.33833E-03   -0.25130E-05  8106   0.950E-03    0.622E-02
RMM:  34    -0.496650498683E+03   -0.47012E-03   -0.39874E-05  8065   0.962E-03    0.287E-02
RMM:  35    -0.496650801072E+03   -0.30239E-03   -0.35344E-05  8323   0.910E-03    0.308E-02
RMM:  36    -0.496650953283E+03   -0.15221E-03   -0.22635E-05  8186   0.685E-03    0.125E-02
RMM:  37    -0.496651011367E+03   -0.58084E-04   -0.98795E-06  7619   0.525E-03    0.185E-02
RMM:  38    -0.496651036228E+03   -0.24861E-04   -0.45547E-06  6158   0.411E-03    0.608E-03
RMM:  39    -0.496651046509E+03   -0.10281E-04   -0.17115E-06  5244   0.280E-03    0.845E-03
RMM:  40    -0.496651052423E+03   -0.59142E-05   -0.12593E-06  5026   0.280E-03    0.317E-03
RMM:  41    -0.496651056391E+03   -0.39683E-05   -0.63221E-07  4432   0.159E-03    0.448E-03
RMM:  42    -0.496651060393E+03   -0.40023E-05   -0.44142E-07  4290   0.170E-03    0.219E-03
RMM:  43    -0.496651063763E+03   -0.33692E-05   -0.24343E-07  4199   0.981E-04    0.254E-03
RMM:  44    -0.496651065915E+03   -0.21521E-05   -0.14753E-07  4088   0.955E-04    0.131E-03
RMM:  45    -0.496651069600E+03   -0.36848E-05   -0.16443E-07  3893   0.617E-04    0.160E-03
RMM:  46    -0.496651071343E+03   -0.17438E-05   -0.87806E-08  3670   0.703E-04    0.697E-04
RMM:  47    -0.496651074885E+03   -0.35418E-05   -0.13164E-07  3028   0.467E-04    0.919E-04
RMM:  48    -0.496651076486E+03   -0.16011E-05   -0.56868E-08  2591   0.503E-04    0.697E-04
RMM:  49    -0.496651078589E+03   -0.21025E-05   -0.10132E-07  2692   0.433E-04    0.722E-04
RMM:  50    -0.496651079176E+03   -0.58754E-06   -0.40725E-08  2344   0.454E-04
   1 F= -.51144402E+03 E0= -.51144402E+03  d E =0.000000E+00  mag=   122.6124
