 vasp.5.4.4.18Apr17-6-g9f103f2a35 (build Dec 15 2018 21:27:11) complex          
  
 executed on             LinuxIFC date 2022.03.06  07:04:01
 running on   72 total cores
 distrk:  each k-point on   72 cores,    1 groups
 distr:  one band on NCORES_PER_BAND=  24 cores,    3 groups


--------------------------------------------------------------------------------------------------------


 INCAR:
 POTCAR:    PAW_PBE Fe 06Sep2000                  
 POTCAR:    PAW_PBE Ni 02Aug2007                  
 POTCAR:    PAW_PBE O 08Apr2002                   
 POTCAR:    PAW_PBE H 15Jun2001                   

 ----------------------------------------------------------------------------- 
|                                                                             |
|           W    W    AA    RRRRR   N    N  II  N    N   GGGG   !!!           |
|           W    W   A  A   R    R  NN   N  II  NN   N  G    G  !!!           |
|           W    W  A    A  R    R  N N  N  II  N N  N  G       !!!           |
|           W WW W  AAAAAA  RRRRR   N  N N  II  N  N N  G  GGG   !            |
|           WW  WW  A    A  R   R   N   NN  II  N   NN  G    G                |
|           W    W  A    A  R    R  N    N  II  N    N   GGGG   !!!           |
|                                                                             |
|      For optimal performance we recommend to set                            |
|        NCORE= 4 - approx SQRT( number of cores)                             |
|      NCORE specifies how many cores store one orbital (NPAR=cpu/NCORE).     |
|      This setting can  greatly improve the performance of VASP for DFT.     |
|      The default,   NCORE=1            might be grossly inefficient         |
|      on modern multi-core architectures or massively parallel machines.     |
|      Do your own testing !!!!                                               |
|      Unfortunately you need to use the default for GW and RPA calculations. |
|      (for HF NCORE is supported but not extensively tested yet)             |
|                                                                             |
 ----------------------------------------------------------------------------- 

 POTCAR:    PAW_PBE Fe 06Sep2000                  
   VRHFIN =Fe:  d7 s1                                                           
   LEXCH  = PE                                                                  
   EATOM  =   594.3153 eV,   43.6809 Ry                                         
                                                                                
   TITEL  = PAW_PBE Fe 06Sep2000                                                
   LULTRA =        F    use ultrasoft PP ?                                      
   IUNSCR =        1    unscreen: 0-lin 1-nonlin 2-no                           
   RPACOR =    2.000    partial core radius                                     
   POMASS =   55.847; ZVAL   =    8.000    mass and valenz                      
   RCORE  =    2.300    outmost cutoff radius                                   
   RWIGS  =    2.460; RWIGS  =    1.302    wigner-seitz radius (au A)           
   ENMAX  =  267.882; ENMIN  =  200.911 eV                                      
   RCLOC  =    1.701    cutoff for local pot                                    
   LCOR   =        T    correct aug charges                                     
   LPAW   =        T    paw PP                                                  
   EAUG   =  511.368                                                            
   DEXC   =    0.000                                                            
   RMAX   =    2.356    core radius for proj-oper                               
   RAUG   =    1.300    factor for augmentation sphere                          
   RDEP   =    2.442    radius for radial grids                                 
   RDEPT  =    1.890    core radius for aug-charge                              
                                                                                
   Atomic configuration                                                         
    9 entries                                                                   
     n  l   j            E        occ.                                          
     1  0  0.50     -6993.8440   2.0000                                         
     2  0  0.50      -814.6047   2.0000                                         
     2  1  1.50      -693.3689   6.0000                                         
     3  0  0.50       -89.4732   2.0000                                         
     3  1  1.50       -55.6373   6.0000                                         
     3  2  2.50        -3.8151   7.0000                                         
     4  0  0.50        -4.2551   1.0000                                         
     4  1  1.50        -3.4015   0.0000                                         
     4  3  2.50        -1.3606   0.0000                                         
   Description                                                                  
     l       E           TYP  RCUT    TYP  RCUT                                 
     2     -3.8151135     23  2.300                                             
     2     -5.1756961     23  2.300                                             
     0     -4.2550963     23  2.300                                             
     0      7.2035603     23  2.300                                             
     1     -2.7211652     23  2.300                                             
     1     18.4316424     23  2.300                                             
  local pseudopotential read in
  partial core-charges read in
  partial kinetic energy density read in
  atomic valenz-charges read in
  non local Contribution for L=           2  read in
    real space projection operators read in
  non local Contribution for L=           2  read in
    real space projection operators read in
  non local Contribution for L=           0  read in
    real space projection operators read in
  non local Contribution for L=           0  read in
    real space projection operators read in
  non local Contribution for L=           1  read in
    real space projection operators read in
  non local Contribution for L=           1  read in
    real space projection operators read in
    PAW grid and wavefunctions read in
 
   number of l-projection  operators is LMAX  =           6
   number of lm-projection operators is LMMAX =          18
 
 POTCAR:    PAW_PBE Ni 02Aug2007                  
   VRHFIN =Ni:                                                                  
   LEXCH  = PE                                                                  
   EATOM  =  1077.6739 eV,   79.2068 Ry                                         
                                                                                
   TITEL  = PAW_PBE Ni 02Aug2007                                                
   LULTRA =        F    use ultrasoft PP ?                                      
   IUNSCR =        1    unscreen: 0-lin 1-nonlin 2-no                           
   RPACOR =    2.000    partial core radius                                     
   POMASS =   58.690; ZVAL   =   10.000    mass and valenz                      
   RCORE  =    2.300    outmost cutoff radius                                   
   RWIGS  =    2.430; RWIGS  =    1.286    wigner-seitz radius (au A)           
   ENMAX  =  269.532; ENMIN  =  202.149 eV                                      
   RCLOC  =    1.201    cutoff for local pot                                    
   LCOR   =        T    correct aug charges                                     
   LPAW   =        T    paw PP                                                  
   EAUG   =  544.565                                                            
   DEXC   =    0.000                                                            
   RMAX   =    2.357    core radius for proj-oper                               
   RAUG   =    1.300    factor for augmentation sphere                          
   RDEP   =    2.390    radius for radial grids                                 
   RDEPT  =    1.838    core radius for aug-charge                              
                                                                                
   Atomic configuration                                                         
    9 entries                                                                   
     n  l   j            E        occ.                                          
     1  0  0.50     -8206.4253   2.0000                                         
     2  0  0.50      -976.1748   2.0000                                         
     2  1  1.50      -839.0571   6.0000                                         
     3  0  0.50      -105.9991   2.0000                                         
     3  1  1.50       -66.4603   6.0000                                         
     3  2  2.50        -4.6458   9.0000                                         
     4  0  0.50        -4.4926   1.0000                                         
     4  1  1.50        -4.0817   0.0000                                         
     4  3  2.50        -1.3606   0.0000                                         
   Description                                                                  
     l       E           TYP  RCUT    TYP  RCUT                                 
     2     -4.6457903     23  2.300                                             
     2     -6.0063729     23  2.300                                             
     0     -4.4925590     23  2.300                                             
     0      5.0102601     23  2.300                                             
     1     -2.7211652     23  2.300                                             
     1     16.5183231     23  2.300                                             
  local pseudopotential read in
  partial core-charges read in
  partial kinetic energy density read in
  atomic valenz-charges read in
  non local Contribution for L=           2  read in
    real space projection operators read in
  non local Contribution for L=           2  read in
    real space projection operators read in
  non local Contribution for L=           0  read in
    real space projection operators read in
  non local Contribution for L=           0  read in
    real space projection operators read in
  non local Contribution for L=           1  read in
    real space projection operators read in
  non local Contribution for L=           1  read in
    real space projection operators read in
    PAW grid and wavefunctions read in
 
   number of l-projection  operators is LMAX  =           6
   number of lm-projection operators is LMMAX =          18
 
 POTCAR:    PAW_PBE O 08Apr2002                   
   VRHFIN =O: s2p4                                                              
   LEXCH  = PE                                                                  
   EATOM  =   432.3788 eV,   31.7789 Ry                                         
                                                                                
   TITEL  = PAW_PBE O 08Apr2002                                                 
   LULTRA =        F    use ultrasoft PP ?                                      
   IUNSCR =        1    unscreen: 0-lin 1-nonlin 2-no                           
   RPACOR =    1.200    partial core radius                                     
   POMASS =   16.000; ZVAL   =    6.000    mass and valenz                      
   RCORE  =    1.520    outmost cutoff radius                                   
   RWIGS  =    1.550; RWIGS  =    0.820    wigner-seitz radius (au A)           
   ENMAX  =  400.000; ENMIN  =  300.000 eV                                      
   ICORE  =        2    local potential                                         
   LCOR   =        T    correct aug charges                                     
   LPAW   =        T    paw PP                                                  
   EAUG   =  605.392                                                            
   DEXC   =    0.000                                                            
   RMAX   =    1.553    core radius for proj-oper                               
   RAUG   =    1.300    factor for augmentation sphere                          
   RDEP   =    1.550    radius for radial grids                                 
   RDEPT  =    1.329    core radius for aug-charge                              
                                                                                
   Atomic configuration                                                         
    4 entries                                                                   
     n  l   j            E        occ.                                          
     1  0  0.50      -514.6923   2.0000                                         
     2  0  0.50       -23.9615   2.0000                                         
     2  1  0.50        -9.0305   4.0000                                         
     3  2  1.50        -9.5241   0.0000                                         
   Description                                                                  
     l       E           TYP  RCUT    TYP  RCUT                                 
     0    -23.9615318     23  1.200                                             
     0     -9.5240782     23  1.200                                             
     1     -9.0304911     23  1.520                                             
     1      8.1634956     23  1.520                                             
     2     -9.5240782      7  1.500                                             
  local pseudopotential read in
  partial core-charges read in
  partial kinetic energy density read in
  kinetic energy density of atom read in
  atomic valenz-charges read in
  non local Contribution for L=           0  read in
    real space projection operators read in
  non local Contribution for L=           0  read in
    real space projection operators read in
  non local Contribution for L=           1  read in
    real space projection operators read in
  non local Contribution for L=           1  read in
    real space projection operators read in
    PAW grid and wavefunctions read in
 
   number of l-projection  operators is LMAX  =           4
   number of lm-projection operators is LMMAX =           8
 
 POTCAR:    PAW_PBE H 15Jun2001                   
   VRHFIN =H: ultrasoft test                                                    
   LEXCH  = PE                                                                  
   EATOM  =    12.4884 eV,    0.9179 Ry                                         
                                                                                
   TITEL  = PAW_PBE H 15Jun2001                                                 
   LULTRA =        F    use ultrasoft PP ?                                      
   IUNSCR =        0    unscreen: 0-lin 1-nonlin 2-no                           
   RPACOR =    0.000    partial core radius                                     
   POMASS =    1.000; ZVAL   =    1.000    mass and valenz                      
   RCORE  =    1.100    outmost cutoff radius                                   
   RWIGS  =    0.700; RWIGS  =    0.370    wigner-seitz radius (au A)           
   ENMAX  =  250.000; ENMIN  =  200.000 eV                                      
   RCLOC  =    0.701    cutoff for local pot                                    
   LCOR   =        T    correct aug charges                                     
   LPAW   =        T    paw PP                                                  
   EAUG   =  400.000                                                            
   RMAX   =    1.123    core radius for proj-oper                               
   RAUG   =    1.200    factor for augmentation sphere                          
   RDEP   =    1.112    radius for radial grids                                 
   RDEPT  =    0.926    core radius for aug-charge                              
                                                                                
   Atomic configuration                                                         
    2 entries                                                                   
     n  l   j            E        occ.                                          
     1  0  0.50        -6.4927   1.0000                                         
     2  1  0.50        -3.4015   0.0000                                         
   Description                                                                  
     l       E           TYP  RCUT    TYP  RCUT                                 
     0     -6.4927494     23  1.100                                             
     0      6.8029130     23  1.100                                             
     1     -4.0817478     23  1.100                                             
  local pseudopotential read in
  atomic valenz-charges read in
  non local Contribution for L=           0  read in
    real space projection operators read in
  non local Contribution for L=           0  read in
    real space projection operators read in
  non local Contribution for L=           1  read in
    real space projection operators read in
    PAW grid and wavefunctions read in
 
   number of l-projection  operators is LMAX  =           3
   number of lm-projection operators is LMMAX =           5
 
 Optimization of the real space projectors (new method)

 maximal supplied QI-value         = 16.25
 optimisation between [QCUT,QGAM] = [ 11.54, 23.24] = [ 37.28,151.24] Ry 
 Optimized for a Real-space Cutoff    1.53 Angstroem

   l    n(q)    QCUT    max X(q) W(low)/X(q) W(high)/X(q)  e(spline) 
   2     10    11.539    80.901    0.11E-03    0.14E-03    0.21E-06
   2     10    11.539    75.754    0.11E-03    0.14E-03    0.22E-06
   0     11    11.539    58.752    0.52E-04    0.18E-04    0.33E-06
   0     11    11.539    30.679    0.44E-04    0.16E-04    0.30E-06
   1     10    11.539    17.977    0.53E-04    0.29E-04    0.13E-06
   1     10    11.539    13.559    0.44E-04    0.25E-04    0.11E-06
 Optimization of the real space projectors (new method)

 maximal supplied QI-value         = 16.25
 optimisation between [QCUT,QGAM] = [ 11.54, 23.24] = [ 37.28,151.24] Ry 
 Optimized for a Real-space Cutoff    1.45 Angstroem

   l    n(q)    QCUT    max X(q) W(low)/X(q) W(high)/X(q)  e(spline) 
   2      9    11.539    60.317    0.19E-03    0.47E-04    0.16E-06
   2      9    11.539    55.921    0.19E-03    0.48E-04    0.16E-06
   0     10    11.539    51.690    0.80E-04    0.50E-04    0.24E-06
   0     10    11.539    30.015    0.73E-04    0.45E-04    0.22E-06
   1     10    11.539    18.849    0.87E-04    0.16E-03    0.71E-07
   1     10    11.539    14.624    0.73E-04    0.13E-03    0.64E-07
 Optimization of the real space projectors (new method)

 maximal supplied QI-value         = 24.76
 optimisation between [QCUT,QGAM] = [ 11.64, 23.27] = [ 37.91,151.63] Ry 
 Optimized for a Real-space Cutoff    1.14 Angstroem

   l    n(q)    QCUT    max X(q) W(low)/X(q) W(high)/X(q)  e(spline) 
   0      8    11.635    20.381    0.10E-03    0.33E-03    0.24E-06
   0      8    11.635    15.268    0.11E-03    0.35E-03    0.26E-06
   1      7    11.635     5.964    0.24E-03    0.31E-03    0.30E-06
   1      7    11.635     5.382    0.22E-03    0.25E-03    0.26E-06
 Optimization of the real space projectors (new method)

 maximal supplied QI-value         = 34.20
 optimisation between [QCUT,QGAM] = [ 11.63, 23.26] = [ 37.87,151.49] Ry 
 Optimized for a Real-space Cutoff    1.21 Angstroem

   l    n(q)    QCUT    max X(q) W(low)/X(q) W(high)/X(q)  e(spline) 
   0      8    11.629    19.460    0.17E-03    0.34E-03    0.21E-06
   0      8    11.629    12.209    0.16E-03    0.33E-03    0.21E-06
   1      8    11.629     4.655    0.18E-03    0.16E-03    0.26E-06
  PAW_PBE Fe 06Sep2000                  :
 energy of atom  1       EATOM= -594.3153
 kinetic energy error for atom=    0.0026 (will be added to EATOM!!)
  PAW_PBE Ni 02Aug2007                  :
 energy of atom  2       EATOM=-1077.6739
 kinetic energy error for atom=    0.0030 (will be added to EATOM!!)
  PAW_PBE O 08Apr2002                   :
 energy of atom  3       EATOM= -432.3788
 kinetic energy error for atom=    0.0208 (will be added to EATOM!!)
  PAW_PBE H 15Jun2001                   :
 energy of atom  4       EATOM=  -12.4884
 kinetic energy error for atom=    0.0014 (will be added to EATOM!!)
 
 
 POSCAR: POSCAR                                  
  positions in direct lattice
  velocities in cartesian coordinates
 exchange correlation table for  LEXCH =        8
   RHO(1)=    0.500       N(1)  =     2000
   RHO(2)=  100.500       N(2)  =     4000

 VTST: version 3.2, (02/03/18)

 CHAIN: initializing optimizer
 
 OPT: Using VASP Dynamics algorithm
 CHAIN: Read ICHAIN            0
 
 POSCAR: POSCAR                                  
  positions in direct lattice
  velocities in cartesian coordinates
 


--------------------------------------------------------------------------------------------------------


 ion  position               nearest neighbor table
   1  0.002  0.999  0.097-   9 2.45  29 2.50  49 2.51  64 2.51  44 2.53   7 2.53  51 2.54  38 2.55
                             5 2.60
   2  0.002  0.997  0.381-  11 2.42  48 2.47   6 2.49  30 2.50  57 2.50   8 2.51  39 2.52  52 2.52
                            50 2.57
   3  0.499  0.996  0.096-   5 2.47  62 2.50  34 2.52  31 2.52  49 2.53  45 2.55  55 2.55  12 2.56
                            53 2.58
   4  0.504  0.993  0.380-  15 2.40  13 2.44  63 2.46  35 2.50  32 2.51   6 2.53  50 2.54  56 2.55
                            54 2.59
   5  0.743  0.996  0.094-   3 2.47  34 2.47  62 2.52  38 2.53  55 2.54  64 2.58  14 2.58  51 2.59
                             1 2.60
   6  0.756  0.996  0.385-  68 1.80  39 2.45   2 2.49  56 2.51  35 2.52  47 2.53   4 2.53  15 2.54
                            57 2.56  52 2.58
   7  0.249  0.253  0.097-  22 2.43   9 2.44  51 2.49  18 2.52  20 2.53   1 2.53  53 2.54  10 2.55
                            49 2.58
   8  0.252  0.245  0.382-  66 1.79  11 2.46  52 2.47  19 2.48  54 2.51   2 2.51  59 2.53  26 2.53
                            21 2.55  50 2.55
   9  0.089  0.161  0.191-  10 2.41   7 2.44   1 2.45  44 2.47  11 2.51  57 2.51  59 2.52  51 2.52
                            64 2.54  22 2.55  58 2.62  14 2.68
  10  0.330  0.166  0.195-  26 2.41   9 2.41  11 2.46  22 2.48  45 2.48  44 2.49  13 2.54   7 2.55
                            12 2.57  49 2.58  53 2.59  25 2.59
  11  0.165  0.079  0.289-   2 2.42   8 2.46  10 2.46  44 2.47  48 2.48  57 2.50  13 2.51   9 2.51
                            59 2.53  46 2.54  26 2.57  50 2.61
  12  0.583  0.166  0.194-  14 2.45  27 2.50  15 2.51  62 2.52  45 2.54  13 2.55  55 2.55   3 2.56
                            10 2.57  28 2.58  53 2.58  25 2.58
  13  0.415  0.083  0.292-   4 2.44  50 2.49  11 2.51  54 2.52  10 2.54  46 2.54  26 2.54  12 2.55
                            45 2.55  28 2.56  15 2.57  63 2.59
  14  0.827  0.167  0.193-  60 2.44  12 2.45  15 2.47  57 2.51  62 2.51  55 2.51  27 2.53  58 2.56
                            51 2.56   5 2.58  64 2.59   9 2.68
  15  0.668  0.082  0.290-   4 2.40  14 2.47  60 2.50  12 2.51  47 2.52  62 2.53  57 2.54   6 2.54
                            28 2.55  56 2.55  63 2.56  13 2.57
  16  0.003  0.511  0.095-  31 2.44  29 2.45  23 2.48  33 2.51  58 2.57  18 2.58  27 2.59  55 2.60
                            51 2.63
  17  0.005  0.500  0.377-  43 2.38  37 2.41  60 2.43  32 2.53  19 2.54  24 2.55  52 2.55  30 2.55
                            56 2.57
  18  0.256  0.506  0.097-  36 2.40  31 2.45  34 2.47  22 2.47  20 2.48   7 2.52  58 2.53  51 2.58
                            16 2.58
  19  0.250  0.489  0.385-  67 1.87  52 2.41   8 2.48  59 2.52  21 2.54  17 2.54  61 2.57  37 2.59
                            35 2.59  32 2.61
  20  0.500  0.503  0.098-  22 2.41  40 2.43  34 2.48  18 2.48  38 2.50  25 2.53   7 2.53  53 2.54
                            23 2.58
  21  0.504  0.496  0.376-  42 2.38  26 2.40  61 2.43  35 2.53  54 2.53  19 2.54   8 2.55  24 2.55
                            39 2.55
  22  0.339  0.416  0.189-  20 2.41   7 2.43  26 2.46  40 2.46  18 2.47  25 2.48  10 2.48  61 2.51
                            36 2.53  59 2.53   9 2.55  58 2.60
  23  0.757  0.508  0.096-  29 2.40  41 2.46  16 2.48  27 2.48  38 2.48  25 2.56  55 2.57  20 2.58
                            53 2.60
  24  0.752  0.495  0.394-  65 1.89  69 1.96  54 2.54  21 2.55  17 2.55  28 2.55  56 2.56  39 2.61
                            30 2.61  43 2.66  42 2.70
  25  0.586  0.422  0.194-  26 2.43  42 2.45  40 2.45  41 2.46  27 2.46  22 2.48  20 2.53  23 2.56
                            53 2.58  12 2.58  10 2.59  28 2.60
  26  0.417  0.335  0.285-  21 2.40  10 2.41  25 2.43  22 2.46  59 2.49  61 2.49   8 2.53  13 2.54
                            42 2.56  11 2.57  28 2.57  54 2.70
  27  0.827  0.417  0.192-  41 2.45  25 2.46  23 2.48  12 2.50  55 2.51  43 2.53  14 2.53  60 2.53
                            28 2.57  58 2.59  16 2.59  33 2.60
  28  0.670  0.334  0.294-  60 2.50  43 2.51  42 2.52  54 2.53  56 2.54  15 2.55  24 2.55  13 2.56
                            27 2.57  26 2.57  12 2.58  25 2.60
  29  0.992  0.747  0.096-  23 2.40  16 2.45  38 2.48  41 2.50   1 2.50  33 2.54  44 2.56  49 2.57
                            31 2.63
  30  0.010  0.754  0.388-  65 1.86  50 2.45  46 2.47  32 2.49   2 2.50  17 2.55  43 2.59  39 2.60
                            24 2.61  48 2.64
  31  0.251  0.746  0.097-  16 2.44  36 2.44  18 2.45  33 2.49  34 2.52   3 2.52  45 2.55  49 2.56
                            29 2.63
  32  0.253  0.749  0.389-  67 1.87  50 2.48  30 2.49   4 2.51  46 2.52  17 2.53  35 2.56  63 2.60
                            19 2.61  37 2.65
  33  0.086  0.671  0.192-  45 2.48  44 2.48  31 2.49  16 2.51  36 2.52  37 2.52  41 2.52  46 2.53
                            43 2.54  29 2.54  58 2.55  27 2.60
  34  0.502  0.749  0.098-  18 2.47   5 2.47  40 2.48  36 2.48  20 2.48  62 2.49  38 2.49  31 2.52
                             3 2.52
  35  0.506  0.746  0.385-  67 1.87  39 2.46  47 2.50   4 2.50   6 2.52  21 2.53  32 2.56  61 2.56
                            63 2.59  19 2.59
  36  0.330  0.661  0.190-  18 2.40  31 2.44  37 2.47  34 2.48  58 2.49  61 2.51  63 2.51  33 2.52
                            22 2.53  40 2.53  62 2.56  45 2.62
  37  0.170  0.578  0.286-  17 2.41  58 2.44  36 2.47  61 2.48  59 2.49  63 2.50  33 2.52  60 2.55
                            46 2.55  43 2.58  19 2.59  32 2.65
  38  0.748  0.749  0.094-  29 2.48  23 2.48  34 2.49  20 2.50   5 2.53  40 2.54  64 2.55   1 2.55
                            41 2.58
  39  0.751  0.751  0.388-  65 1.84   6 2.45  35 2.46   2 2.52  21 2.55  47 2.56  42 2.58  30 2.60
                            48 2.60  24 2.61
  40  0.580  0.661  0.192-  20 2.43  25 2.45  22 2.46  61 2.47  34 2.48  36 2.53  42 2.53  47 2.53
                            38 2.54  41 2.54  62 2.56  64 2.57
  41  0.832  0.662  0.193-  27 2.45  42 2.45  25 2.46  23 2.46  48 2.49  29 2.50  43 2.50  33 2.52
                            40 2.54  64 2.54  44 2.57  38 2.58
  42  0.673  0.584  0.288-  21 2.38  25 2.45  41 2.45  43 2.48  48 2.50  28 2.52  47 2.53  40 2.53
                            26 2.56  39 2.58  61 2.58  24 2.70
  43  0.917  0.582  0.289-  17 2.38  42 2.48  41 2.50  46 2.51  28 2.51  27 2.53  33 2.54  48 2.54
                            60 2.55  37 2.58  30 2.59  24 2.66
  44  0.086  0.916  0.194-  45 2.43  48 2.46   9 2.47  11 2.47  33 2.48  10 2.49   1 2.53  49 2.53
                            64 2.54  46 2.56  29 2.56  41 2.57
  45  0.327  0.919  0.193-  44 2.43  33 2.48  10 2.48  49 2.49  46 2.53  63 2.54  12 2.54  31 2.55
                            13 2.55   3 2.55  62 2.59  36 2.62
  46  0.167  0.829  0.292-  30 2.47  43 2.51  50 2.52  32 2.52  63 2.53  33 2.53  45 2.53  13 2.54
                            11 2.54  48 2.54  37 2.55  44 2.56
  47  0.665  0.830  0.288-  35 2.50  63 2.51  62 2.51  64 2.51  61 2.52  15 2.52   6 2.53  42 2.53
                            40 2.53  48 2.54  39 2.56  57 2.57
  48  0.918  0.834  0.286-  44 2.46  64 2.47   2 2.47  11 2.48  41 2.49  42 2.50  57 2.52  43 2.54
                            46 2.54  47 2.54  39 2.60  30 2.64
  49  0.249  0.998  0.096-  45 2.49   1 2.51  44 2.53   3 2.53  53 2.55  31 2.56  29 2.57  10 2.58
                             7 2.58
  50  0.254  0.994  0.389-  66 1.87  30 2.45  32 2.48  13 2.49  54 2.51  46 2.52   4 2.54   8 2.55
                             2 2.57  11 2.61
  51  0.001  0.250  0.097-   7 2.49  58 2.51   9 2.52   1 2.54  55 2.55  14 2.56  18 2.58   5 2.59
                            16 2.63
  52  0.011  0.251  0.381-  68 1.87  19 2.41  59 2.46   8 2.47  57 2.50   2 2.52  60 2.53  56 2.54
                            17 2.55   6 2.58
  53  0.499  0.252  0.095-  55 2.53   7 2.54  20 2.54  49 2.55   3 2.58  25 2.58  12 2.58  10 2.59
                            23 2.60
  54  0.499  0.245  0.390-  66 1.95  69 2.04   8 2.51  50 2.51  13 2.52  28 2.53  21 2.53  24 2.54
                             4 2.59  56 2.60  26 2.70
  55  0.749  0.251  0.096-  14 2.51  27 2.51  53 2.53   5 2.54  51 2.55   3 2.55  12 2.55  23 2.57
                            16 2.60
  56  0.756  0.244  0.389-  68 1.94  69 2.02   6 2.51  52 2.54  28 2.54  15 2.55   4 2.55  24 2.56
                            17 2.57  60 2.58  54 2.60
  57  0.920  0.084  0.286-  64 2.48  11 2.50  52 2.50   2 2.50  14 2.51  60 2.51   9 2.51  59 2.51
                            48 2.52  15 2.54   6 2.56  47 2.57
  58  0.083  0.417  0.192-  37 2.44  36 2.49  60 2.49  59 2.50  51 2.51  18 2.53  33 2.55  14 2.56
                            16 2.57  27 2.59  22 2.60   9 2.62
  59  0.170  0.332  0.286-  52 2.46  26 2.49  37 2.49  58 2.50  61 2.51  57 2.51  19 2.52   9 2.52
                             8 2.53  22 2.53  11 2.53  60 2.56
  60  0.915  0.329  0.287-  17 2.43  14 2.44  58 2.49  15 2.50  28 2.50  57 2.51  52 2.53  27 2.53
                            43 2.55  37 2.55  59 2.56  56 2.58
  61  0.416  0.581  0.286-  21 2.43  40 2.47  37 2.48  26 2.49  63 2.50  36 2.51  59 2.51  22 2.51
                            47 2.52  35 2.56  19 2.57  42 2.58
  62  0.582  0.915  0.192-  63 2.47  34 2.49   3 2.50  14 2.51  47 2.51   5 2.52  12 2.52  15 2.53
                            64 2.55  36 2.56  40 2.56  45 2.59
  63  0.416  0.828  0.286-   4 2.46  62 2.47  61 2.50  37 2.50  47 2.51  36 2.51  46 2.53  45 2.54
                            15 2.56  13 2.59  35 2.59  32 2.60
  64  0.834  0.915  0.192-  48 2.47  57 2.48   1 2.51  47 2.51   9 2.54  44 2.54  41 2.54  38 2.55
                            62 2.55  40 2.57   5 2.58  14 2.59
  65  0.842  0.678  0.442-  39 1.84  30 1.86  24 1.89
  66  0.316  0.163  0.441-   8 1.79  50 1.87  54 1.95
  67  0.337  0.658  0.439-  32 1.87  19 1.87  35 1.87
  68  0.851  0.154  0.439-   6 1.80  52 1.87  56 1.94
  69  0.671  0.326  0.455-  70 0.97  24 1.96  56 2.02  54 2.04
  70  0.675  0.326  0.500-  69 0.97
 

IMPORTANT INFORMATION: All symmetrisations will be switched off!
NOSYMM: (Re-)initialisation of all symmetry stuff for point group C_1.

 
 

Automatic generation of k-mesh.
 generate k-points for:    3    3    1
Space group operators:
 irot       det(A)        alpha          n_x          n_y          n_z        tau_x        tau_y        tau_z
    1     1.000000     0.000000     1.000000     0.000000     0.000000     0.000000     0.000000     0.000000
 
 Subroutine IBZKPT returns following result:
 ===========================================
 
 Found      5 irreducible k-points:
 
 Following reciprocal coordinates:
            Coordinates               Weight
  0.000000  0.000000  0.000000      1.000000
  0.333333  0.000000  0.000000      2.000000
  0.000000  0.333333  0.000000      2.000000
  0.333333  0.333333  0.000000      2.000000
 -0.333333  0.333333  0.000000      2.000000
 
 Following cartesian coordinates:
            Coordinates               Weight
  0.000000  0.000000  0.000000      1.000000
  0.032965  0.019033  0.000000      2.000000
  0.000000  0.038065  0.000000      2.000000
  0.032965  0.057098  0.000000      2.000000
 -0.032965  0.019033  0.000000      2.000000
 
 TETIRR: Found     24 inequivalent tetrahedra from       54


--------------------------------------------------------------------------------------------------------




 Dimension of arrays:
   k-points           NKPTS =      5   k-points in BZ     NKDIM =      5   number of bands    NBANDS=    381
   number of dos      NEDOS =    301   number of ions     NIONS =     70
   non local maximal  LDIM  =      6   non local SUM 2l+1 LMDIM =     18
   total plane-waves  NPLWV = ******
   max r-space proj   IRMAX =   8269   max aug-charges    IRDMAX=  19568
   dimension x,y,z NGX =    80 NGY =   80 NGZ =  160
   dimension x,y,z NGXF=   160 NGYF=  160 NGZF=  320
   support grid    NGXF=   160 NGYF=  160 NGZF=  320
   ions per type =              48  16   5   1
   NGX,Y,Z   is equivalent  to a cutoff of  13.15, 13.15, 12.51 a.u.
   NGXF,Y,Z  is equivalent  to a cutoff of  26.31, 26.31, 25.02 a.u.

 SYSTEM =  SQS-NiFe                                
 POSCAR =  POSCAR                                  

 Startparameter for this run:
   NWRITE =      2    write-flag & timer
   PREC   = accura    normal or accurate (medium, high low for compatibility)
   ISTART =      1    job   : 0-new  1-cont  2-samecut
   ICHARG =      1    charge: 1-file 2-atom 10-const
   ISPIN  =      2    spin polarized calculation?
   LNONCOLLINEAR =      F non collinear calculations
   LSORBIT =      F    spin-orbit coupling
   INIWAV =      1    electr: 0-lowe 1-rand  2-diag
   LASPH  =      F    aspherical Exc in radial PAW
   METAGGA=      F    non-selfconsistent MetaGGA calc.

 Electronic Relaxation 1
   ENCUT  =  520.0 eV  38.22 Ry    6.18 a.u.  18.80 18.80 39.54*2*pi/ulx,y,z
   ENINI  =  520.0     initial cutoff
   ENAUG  =  605.4 eV  augmentation charge cutoff
   NELM   =    200;   NELMIN=  2; NELMDL=  0     # of ELM steps 
   EDIFF  = 0.1E-05   stopping-criterion for ELM
   LREAL  =      T    real-space projection
   NLSPLINE    = F    spline interpolate recip. space projectors
   LCOMPAT=      F    compatible to vasp.4.4
   GGA_COMPAT  = T    GGA compatible to vasp.4.4-vasp.4.6
   LMAXPAW     = -100 max onsite density
   LMAXMIX     =    2 max onsite mixed and CHGCAR
   VOSKOWN=      0    Vosko Wilk Nusair interpolation
   ROPT   =   -0.00025  -0.00025  -0.00025  -0.00025
 Ionic relaxation
   EDIFFG = -.2E-01   stopping-criterion for IOM
   NSW    =      0    number of steps for IOM
   NBLOCK =      1;   KBLOCK =      1    inner block; outer block 
   IBRION =     -1    ionic relax: 0-MD 1-quasi-New 2-CG
   NFREE  =      0    steps in history (QN), initial steepest desc. (CG)
   ISIF   =      2    stress and relaxation
   IWAVPR =     10    prediction:  0-non 1-charg 2-wave 3-comb
   ISYM   =      0    0-nonsym 1-usesym 2-fastsym
   LCORR  =      T    Harris-Foulkes like correction to forces

   POTIM  = 0.5000    time-step for ionic-motion
   TEIN   =    0.0    initial temperature
   TEBEG  =    0.0;   TEEND  =   0.0 temperature during run
   SMASS  =  -3.00    Nose mass-parameter (am)
   estimated Nose-frequenzy (Omega)   =  0.10E-29 period in steps =****** mass=  -0.234E-26a.u.
   SCALEE = 1.0000    scale energy and forces
   NPACO  =    256;   APACO  = 16.0  distance and # of slots for P.C.
   PSTRESS=    0.0 pullay stress

  Mass of Ions in am
   POMASS =  55.85 58.69 16.00  1.00
  Ionic Valenz
   ZVAL   =   8.00 10.00  6.00  1.00
  Atomic Wigner-Seitz radii
   RWIGS  =  -1.00 -1.00 -1.00 -1.00
  virtual crystal weights 
   VCA    =   1.00  1.00  1.00  1.00
   NELECT =     575.0000    total number of electrons
   NUPDOWN=      -1.0000    fix difference up-down

 DOS related values:
   EMIN   =  10.00;   EMAX   =-10.00  energy-range for DOS
   EFERMI =   0.00
   ISMEAR =    -5;   SIGMA  =   0.20  broadening in eV -4-tet -1-fermi 0-gaus

 Electronic relaxation 2 (details)
   IALGO  =     68    algorithm
   LDIAG  =      T    sub-space diagonalisation (order eigenvalues)
   LSUBROT=      F    optimize rotation matrix (better conditioning)
   TURBO    =      0    0=normal 1=particle mesh
   IRESTART =      0    0=no restart 2=restart with 2 vectors
   NREBOOT  =      0    no. of reboots
   NMIN     =      0    reboot dimension
   EREF     =   0.00    reference energy to select bands
   IMIX   =      4    mixing-type and parameters
     AMIX     =   0.40;   BMIX     =  1.00
     AMIX_MAG =   1.60;   BMIX_MAG =  1.00
     AMIN     =   0.10
     WC   =   100.;   INIMIX=   1;  MIXPRE=   1;  MAXMIX= -45

 Intra band minimization:
   WEIMIN = 0.0000     energy-eigenvalue tresh-hold
   EBREAK =  0.66E-09  absolut break condition
   DEPER  =   0.30     relativ break condition  

   TIME   =   0.40     timestep for ELM

  volume/ion in A,a.u.               =      26.90       181.54
  Fermi-wavevector in a.u.,A,eV,Ry     =   1.102406  2.083245 16.535148  1.215299
  Thomas-Fermi vector in A             =   2.238848
 
 Write flags
   LWAVE        =      T    write WAVECAR
   LDOWNSAMPLE  =      F    k-point downsampling of WAVECAR
   LCHARG       =      T    write CHGCAR
   LVTOT        =      F    write LOCPOT, total local potential
   LVHAR        =      F    write LOCPOT, Hartree potential only
   LELF         =      F    write electronic localiz. function (ELF)
   LORBIT       =     11    0 simple, 1 ext, 2 COOP (PROOUT), +10 PAW based schemes


 Dipole corrections
   LMONO  =      F    monopole corrections only (constant potential shift)
   LDIPOL =      T    correct potential (dipole corrections)
   IDIPOL =      3    1-x, 2-y, 3-z, 4-all directions 
   EPSILON=  1.0000000 bulk dielectric constant

 Exchange correlation treatment:
   GGA     =    --    GGA type
   LEXCH   =     8    internal setting for exchange type
   VOSKOWN=      0    Vosko Wilk Nusair interpolation
   LHFCALC =     F    Hartree Fock is set to
   LHFONE  =     F    Hartree Fock one center treatment
   AEXX    =    0.0000 exact exchange contribution

 Linear response parameters
   LEPSILON=     F    determine dielectric tensor
   LRPA    =     F    only Hartree local field effects (RPA)
   LNABLA  =     F    use nabla operator in PAW spheres
   LVEL    =     F    velocity operator in full k-point grid
   LINTERFAST=   F  fast interpolation
   KINTER  =     0    interpolate to denser k-point grid
   CSHIFT  =0.1000    complex shift for real part using Kramers Kronig
   OMEGAMAX=  -1.0    maximum frequency
   DEG_THRESHOLD= 0.2000000E-02 threshold for treating states as degnerate
   RTIME   =   -0.100 relaxation time in fs
  (WPLASMAI=    0.000 imaginary part of plasma frequency in eV, 0.658/RTIME)
   DFIELD  = 0.0000000 0.0000000 0.0000000 field for delta impulse in time
 
 Orbital magnetization related:
   ORBITALMAG=     F  switch on orbital magnetization
   LCHIMAG   =     F  perturbation theory with respect to B field
   DQ        =  0.001000  dq finite difference perturbation B field
   LLRAUG    =     F  two centre corrections for induced B field



--------------------------------------------------------------------------------------------------------


 Static calculation
 charge density and potential will be updated during run
 spin polarized calculation
 RMM-DIIS sequential band-by-band and
  variant of blocked Davidson during initial phase
 perform sub-space diagonalisation
    before iterative eigenvector-optimisation
 modified Broyden-mixing scheme, WC =      100.0
 initial mixing is a Kerker type mixing with AMIX =  0.4000 and BMIX =      1.0000
 Hartree-type preconditioning will be used
 using additional bands           93
 real space projection scheme for non local part
 use partial core corrections
 calculate Harris-corrections to forces 
   (improved forces if not selfconsistent)
 use gradient corrections 
 use of overlap-Matrix (Vanderbilt PP)
 Fermi weights with tetrahedron method with Bloechl corrections


--------------------------------------------------------------------------------------------------------


  energy-cutoff  :      520.00
  volume of cell :     1883.07
      direct lattice vectors                 reciprocal lattice vectors
    10.111630000  0.000000000  0.000000000     0.098896024  0.057097646  0.000000000
    -5.055815000  8.756928450  0.000000000     0.000000000  0.114195292  0.000000000
     0.000000000  0.000000000 21.266430000     0.000000000  0.000000000  0.047022467

  length of vectors
    10.111630000 10.111629997 21.266430000     0.114195292  0.114195292  0.047022467


 
 old parameters found on file WAVECAR:
  energy-cutoff  :      520.00
  volume of cell :     1883.07
      direct lattice vectors                 reciprocal lattice vectors
    10.111630000  0.000000000  0.000000000     0.098896024  0.057097646  0.000000000
    -5.055815000  8.756928450  0.000000000     0.000000000  0.114195292  0.000000000
     0.000000000  0.000000000 21.266430000     0.000000000  0.000000000  0.047022467

  length of vectors

 
 k-points in units of 2pi/SCALE and weight: read from INCAR                         
   0.00000000  0.00000000  0.00000000       0.111
   0.03296534  0.01903255  0.00000000       0.222
   0.00000000  0.03806510  0.00000000       0.222
   0.03296534  0.05709765  0.00000000       0.222
  -0.03296534  0.01903255  0.00000000       0.222
 
 k-points in reciprocal lattice and weights: read from INCAR                         
   0.00000000  0.00000000  0.00000000       0.111
   0.33333333  0.00000000  0.00000000       0.222
   0.00000000  0.33333333  0.00000000       0.222
   0.33333333  0.33333333  0.00000000       0.222
  -0.33333333  0.33333333  0.00000000       0.222
 
 position of ions in fractional coordinates (direct lattice) 
   0.00194700  0.99920000  0.09682900
   0.00239520  0.99743360  0.38110470
   0.49880600  0.99647600  0.09614500
   0.50408417  0.99260766  0.37987200
   0.74316000  0.99645900  0.09443100
   0.75573886  0.99555891  0.38548495
   0.24913600  0.25322600  0.09681000
   0.25197968  0.24489887  0.38224190
   0.08873200  0.16149400  0.19059200
   0.32962600  0.16609800  0.19506300
   0.16484507  0.07884891  0.28892327
   0.58333000  0.16550300  0.19443700
   0.41495294  0.08276527  0.29199051
   0.82651500  0.16651000  0.19326300
   0.66836916  0.08156849  0.28967341
   0.00320800  0.51090900  0.09451300
   0.00501183  0.50044886  0.37670758
   0.25586900  0.50577700  0.09734600
   0.24987833  0.48893796  0.38528151
   0.49960200  0.50304900  0.09754100
   0.50397055  0.49617182  0.37557483
   0.33859900  0.41583700  0.18939300
   0.75679100  0.50804300  0.09630900
   0.75244721  0.49462623  0.39422314
   0.58633600  0.42229400  0.19423600
   0.41691978  0.33487749  0.28464790
   0.82677100  0.41676200  0.19199500
   0.67001017  0.33402359  0.29393337
   0.99180600  0.74702800  0.09571300
   0.00957453  0.75407878  0.38830735
   0.25104600  0.74563900  0.09703600
   0.25349490  0.74893127  0.38880810
   0.08604600  0.67086900  0.19220200
   0.50153700  0.74905700  0.09752900
   0.50562361  0.74632165  0.38544027
   0.33005900  0.66135600  0.19018600
   0.16987350  0.57834373  0.28572656
   0.74777500  0.74863100  0.09404500
   0.75122158  0.75147071  0.38760229
   0.58008200  0.66096300  0.19152700
   0.83213700  0.66199500  0.19303500
   0.67278122  0.58426161  0.28790791
   0.91740013  0.58246317  0.28914855
   0.08603600  0.91635500  0.19371200
   0.32743000  0.91932200  0.19293700
   0.16693514  0.82889141  0.29190892
   0.66516964  0.83047002  0.28802353
   0.91846202  0.83395249  0.28634886
   0.24916500  0.99813100  0.09559800
   0.25395395  0.99415545  0.38862501
   0.00129700  0.24974200  0.09658600
   0.01054918  0.25095977  0.38149475
   0.49933100  0.25162700  0.09537300
   0.49943323  0.24523300  0.38981162
   0.74944200  0.25071300  0.09573100
   0.75625020  0.24406771  0.38902278
   0.92020115  0.08405267  0.28609230
   0.08260800  0.41708000  0.19225300
   0.16958545  0.33179732  0.28609344
   0.91477262  0.32927695  0.28658473
   0.41611970  0.58088545  0.28598090
   0.58190700  0.91526900  0.19241300
   0.41575005  0.82763962  0.28630562
   0.83399900  0.91457100  0.19240400
   0.84174336  0.67762392  0.44155364
   0.31582843  0.16340837  0.44134211
   0.33666659  0.65760548  0.43918966
   0.85096961  0.15363135  0.43937594
   0.67133300  0.32623539  0.45470022
   0.67482002  0.32599878  0.50040310
 
 position of ions in cartesian coordinates  (Angst):
  -5.03208300  8.74992291  2.05920715
  -5.01862043  8.73445468  8.10473642
   0.00574341  8.72606903  2.04466091
   0.07867196  8.69219427  8.07852129
   2.47664659  8.72592017  2.00821025
   2.60839008  8.71803818  8.19788862
   1.23890724  2.21748196  2.05880309
   1.30976187  2.14456190  8.12892055
   0.08074137  1.41419140  4.05321143
   2.49329539  1.45450830  4.14829364
   1.26820689  0.69047424  6.14436656
   5.06166458  1.44929793  4.13498085
   3.77740474  0.72476954  6.20959578
   7.51557011  1.45811616  4.11001406
   6.34590640  0.71428945  6.16031940
  -2.55062328  4.47399356  2.00995410
  -2.47949909  4.38239484  8.01122531
   0.03013771  4.42905300  2.07020189
   0.05469740  4.28159473  8.19356229
   2.50846789  4.40516410  2.07434885
   2.58741079  4.34494117  7.98713584
   1.32139286  3.64145486  4.02771298
   5.08381916  4.44889620  2.04814861
   5.10772913  4.33140647  8.38371887
   3.79377235  3.69799834  4.13070630
   2.52265993  2.93249818  6.05344461
   6.25293088  3.64955501  4.08304823
   5.08613341  2.92502070  6.25091337
   6.25193994  6.54167075  2.03547381
  -3.71566874  6.60341396  8.25791101
  -1.23132858  6.52950737  2.06360930
  -1.22321132  6.55833754  8.26856032
  -2.52172424  5.87475183  4.08745038
   1.28426296  6.55943855  2.07409365
   1.33941469  6.53548531  8.19693852
  -0.00625910  5.79144717  4.04457726
  -1.20630094  5.06451469  6.07638379
   3.77628428  6.55570810  2.00000141
   3.79677774  6.58057526  8.24291698
   2.52386790  5.78800570  4.07309554
   5.06733720  5.79704285  4.10516532
   3.84899617  5.11633709  6.12277351
   6.33158462  5.10058829  6.14915740
  -3.76295716  8.02445517  4.11956269
  -1.33707095  8.05043698  4.10308120
  -2.50273531  7.25854278  6.20786054
   2.52724653  7.27236653  6.12523215
   5.07083858  7.30286231  6.08961789
  -2.52690139  8.74056175  2.03302818
  -2.45837767  8.70574815  8.26466650
  -1.24953457  2.18697282  2.05403941
  -1.16213675  2.19763679  8.11303142
   3.77687076  2.20347964  2.02824323
   3.81023139  2.14748780  8.28990147
   6.31052166  2.19547580  2.03585661
   6.41296100  2.13728350  8.27312581
   8.87977878  0.73604321  6.08416186
  -1.27337779  3.65233972  4.08853497
   0.03727939  2.90552542  6.08418601
   7.58507895  2.88345467  6.09463411
   1.27079901  5.08677236  6.08179288
   1.25659754  8.01494515  4.09193760
   0.01951787  7.24758095  6.08869838
   3.80918753  8.00883281  4.09174620
   5.08545628  5.93390414  9.39026949
   2.36737780  1.43095539  9.38577101
   0.07951635  5.75860410  9.33999614
   7.82795815  1.34533876  9.34395771
   5.13888518  2.85681995  9.66985029
   5.17534084  2.85474799 10.64178749
 


--------------------------------------------------------------------------------------------------------


 k-point  1 :   0.0000 0.0000 0.0000  plane waves:   50761
 k-point  2 :   0.3333 0.0000 0.0000  plane waves:   50732
 k-point  3 :   0.0000 0.3333 0.0000  plane waves:   50732
 k-point  4 :   0.3333 0.3333 0.0000  plane waves:   50727
 k-point  5 :  -0.3333 0.3333 0.0000  plane waves:   50732

 maximum and minimum number of plane-waves per node :      2133     2094

 maximum number of plane-waves:     50761
 maximum index in each direction: 
   IXMAX=   19   IYMAX=   18   IZMAX=   39
   IXMIN=  -19   IYMIN=  -19   IZMIN=  -39


 real space projection operators:
  total allocation   :      70058.59 KBytes
  max/ min on nodes  :       3501.51       2625.09


 parallel 3D FFT for wavefunctions:
    minimum data exchange during FFTs selected (reduces bandwidth)
 parallel 3D FFT for charge:
    minimum data exchange during FFTs selected (reduces bandwidth)


 total amount of memory used by VASP MPI-rank0   113878. kBytes
=======================================================================

   base      :      30000. kBytes
   nonlr-proj:      14137. kBytes
   fftplans  :       6403. kBytes
   grid      :      18928. kBytes
   one-center:         93. kBytes
   wavefun   :      44317. kBytes
 
     INWAV:  cpu time   10.7572: real time   11.1536
 Broyden mixing: mesh for mixing (old mesh)
   NGX = 37   NGY = 37   NGZ = 79
  (NGX  =160   NGY  =160   NGZ  =320)
  gives a total of 108151 points

 initial charge density was supplied:
 number of electron     575.0000075 magnetization     122.0851164
 keeping initial charge density in first step


--------------------------------------------------------------------------------------------------------


 Maximum index for non-local projection operator          765
 Maximum index for augmentation-charges         1131 (set IRDMAX)


--------------------------------------------------------------------------------------------------------


 First call to EWALD:  gamma=   0.144
 Maximum number of real-space cells 4x 4x 2
 Maximum number of reciprocal cells 2x 2x 4

    FEWALD:  cpu time    0.0034: real time    0.0034


--------------------------------------- Iteration      1(   1)  ---------------------------------------


    POTLOK:  cpu time    0.4203: real time    0.4271
    SETDIJ:  cpu time    0.0252: real time    0.0252
     EDDAV:  cpu time   38.5987: real time   38.6177
 BZINTS: Fermi energy: -0.137511;575.000000 electrons
         Band energy:***********;  BLOECHL correction: -0.007660
       DOS:  cpu time    0.0468: real time    0.0467
    CHARGE:  cpu time    0.9775: real time    0.9846
    MIXING:  cpu time    0.0063: real time    0.0064
    --------------------------------------------
      LOOP:  cpu time   40.0749: real time   40.1078

 eigenvalue-minimisations  :  8472
 total energy-change (2. order) :-0.4964554E+03  (-0.1324749E-01)
 number of electron     575.0000075 magnetization     122.1534434
 augmentation part      301.6098999 magnetization      98.3033011

 DIPCOR: dipole corrections for dipol
 direction  3 min pos   246,
 dipolmoment           0.000000      0.000000      0.041780 electrons x Angstroem
 Tr[quadrupol]    -10015.882933

 energy correction for charged system         0.000000 eV
 dipol+quadrupol energy correction           -0.000084 eV
 added-field ion interaction          0.680317 eV  (added to PSCEN)


 Broyden mixing:
  rms(total) = 0.11448E+00    rms(broyden)= 0.11437E+00
  rms(prec ) = 0.12175E+00
  weight for this iteration     100.00

 Free energy of the ion-electron system (eV)
  ---------------------------------------------------
  alpha Z        PSCENC =      1552.18682560
  Ewald energy   TEWEN  =    174031.92055102
  -Hartree energ DENC   =   -221678.35406282
  -exchange      EXHF   =         0.00000000
  -V(xc)+E(xc)   XCENC  =       841.34282047
  PAW double counting   =     54684.46272992   -56230.96139775
  entropy T*S    EENTRO =         0.00000000
  eigenvalues    EBANDS =     -1641.07310419
  atomic energy  EATOM  =     47944.02028770
  Solvation  Ediel_sol  =         0.00000000
  ---------------------------------------------------
  free energy    TOTEN  =      -496.45535004 eV

  energy without entropy =     -496.45535004  energy(sigma->0) =     -496.45535004


--------------------------------------------------------------------------------------------------------




--------------------------------------- Iteration      1(   2)  ---------------------------------------


    POTLOK:  cpu time    0.4351: real time    0.4357
    SETDIJ:  cpu time    0.0250: real time    0.0249
    EDDIAG:  cpu time    5.2292: real time    5.2302
  RMM-DIIS:  cpu time   19.4918: real time   19.4978
    ORTHCH:  cpu time    1.4198: real time    1.4201
 BZINTS: Fermi energy: -0.137744;575.000000 electrons
         Band energy:***********;  BLOECHL correction: -0.013637
       DOS:  cpu time    0.0484: real time    0.0484
    CHARGE:  cpu time    0.9641: real time    0.9642
    MIXING:  cpu time    0.0066: real time    0.0065
    --------------------------------------------
      LOOP:  cpu time   27.6200: real time   27.6279

 eigenvalue-minimisations  :  8004
 total energy-change (2. order) :-0.4338232E+00  (-0.2059226E-01)
 number of electron     575.0000076 magnetization     122.1418624
 augmentation part      301.4483599 magnetization      98.9456395

 DIPCOR: dipole corrections for dipol
 direction  3 min pos   245,
 dipolmoment           0.000000      0.000000      0.123498 electrons x Angstroem
 Tr[quadrupol]    -10015.874992

 energy correction for charged system         0.000000 eV
 dipol+quadrupol energy correction           -0.000733 eV
 added-field ion interaction          1.557438 eV  (added to PSCEN)


 Broyden mixing:
  rms(total) = 0.69919E+00    rms(broyden)= 0.69914E+00
  rms(prec ) = 0.95500E+00
  weight for this iteration     100.00

 eigenvalues of (default mixing * dielectric matrix)
  average eigenvalue GAMMA=   0.1236
  0.1236

 Free energy of the ion-electron system (eV)
  ---------------------------------------------------
  alpha Z        PSCENC =      1553.06329730
  Ewald energy   TEWEN  =    174031.92055102
  -Hartree energ DENC   =   -221677.28887343
  -exchange      EXHF   =         0.00000000
  -V(xc)+E(xc)   XCENC  =       841.93422175
  PAW double counting   =     54688.00452263   -56234.35409839
  entropy T*S    EENTRO =         0.00000000
  eigenvalues    EBANDS =     -1644.18908185
  atomic energy  EATOM  =     47944.02028770
  Solvation  Ediel_sol  =         0.00000000
  ---------------------------------------------------
  free energy    TOTEN  =      -496.88917327 eV

  energy without entropy =     -496.88917327  energy(sigma->0) =     -496.88917327


--------------------------------------------------------------------------------------------------------




--------------------------------------- Iteration      1(   3)  ---------------------------------------


    POTLOK:  cpu time    0.4208: real time    0.4335
    SETDIJ:  cpu time    0.0249: real time    0.0249
    EDDIAG:  cpu time    5.2177: real time    5.2267
  RMM-DIIS:  cpu time   19.2494: real time   19.2550
    ORTHCH:  cpu time    1.4144: real time    1.4146
 BZINTS: Fermi energy: -0.128114;575.000000 electrons
         Band energy:***********;  BLOECHL correction: -0.007552
       DOS:  cpu time    0.0456: real time    0.0456
    CHARGE:  cpu time    0.9636: real time    0.9638
    MIXING:  cpu time    0.0065: real time    0.0065
    --------------------------------------------
      LOOP:  cpu time   27.3429: real time   27.3706

 eigenvalue-minimisations  :  7881
 total energy-change (2. order) : 0.1826074E+00  (-0.7868909E-02)
 number of electron     575.0000075 magnetization     122.1386217
 augmentation part      301.6644447 magnetization      98.3690603

 DIPCOR: dipole corrections for dipol
 direction  3 min pos   244,
 dipolmoment           0.000000      0.000000     -0.006776 electrons x Angstroem
 Tr[quadrupol]    -10015.780298

 energy correction for charged system         0.000000 eV
 dipol+quadrupol energy correction           -0.000002 eV
 added-field ion interaction         -0.060566 eV  (added to PSCEN)


 Broyden mixing:
  rms(total) = 0.37454E+00    rms(broyden)= 0.37444E+00
  rms(prec ) = 0.52270E+00
  weight for this iteration     100.00

 eigenvalues of (default mixing * dielectric matrix)
  average eigenvalue GAMMA=   0.1702
  0.2890  0.0514

 Free energy of the ion-electron system (eV)
  ---------------------------------------------------
  alpha Z        PSCENC =      1551.44602412
  Ewald energy   TEWEN  =    174031.92055102
  -Hartree energ DENC   =   -221675.98539426
  -exchange      EXHF   =         0.00000000
  -V(xc)+E(xc)   XCENC  =       841.79642735
  PAW double counting   =     54686.75573813   -56233.05969010
  entropy T*S    EENTRO =         0.00000000
  eigenvalues    EBANDS =     -1643.60050982
  atomic energy  EATOM  =     47944.02028770
  Solvation  Ediel_sol  =         0.00000000
  ---------------------------------------------------
  free energy    TOTEN  =      -496.70656584 eV

  energy without entropy =     -496.70656584  energy(sigma->0) =     -496.70656584


--------------------------------------------------------------------------------------------------------




--------------------------------------- Iteration      1(   4)  ---------------------------------------


    POTLOK:  cpu time    0.4209: real time    0.4327
    SETDIJ:  cpu time    0.0249: real time    0.0249
    EDDIAG:  cpu time    5.2289: real time    5.2378
  RMM-DIIS:  cpu time   18.7481: real time   18.7548
    ORTHCH:  cpu time    1.4171: real time    1.4174
 BZINTS: Fermi energy: -0.140839;575.000000 electrons
         Band energy:***********;  BLOECHL correction: -0.006691
       DOS:  cpu time    0.0447: real time    0.0447
    CHARGE:  cpu time    0.9630: real time    0.9631
    MIXING:  cpu time    0.0066: real time    0.0066
    --------------------------------------------
      LOOP:  cpu time   26.8550: real time   26.8821

 eigenvalue-minimisations  :  7684
 total energy-change (2. order) : 0.4752706E-01  (-0.4703533E-02)
 number of electron     575.0000075 magnetization     122.1564746
 augmentation part      301.6115168 magnetization      98.2410639

 DIPCOR: dipole corrections for dipol
 direction  3 min pos   243,
 dipolmoment           0.000000      0.000000      0.038898 electrons x Angstroem
 Tr[quadrupol]    -10015.821119

 energy correction for charged system         0.000000 eV
 dipol+quadrupol energy correction           -0.000073 eV
 added-field ion interaction          0.204861 eV  (added to PSCEN)


 Broyden mixing:
  rms(total) = 0.24960E+00    rms(broyden)= 0.24957E+00
  rms(prec ) = 0.27999E+00
  weight for this iteration     100.00

 eigenvalues of (default mixing * dielectric matrix)
  average eigenvalue GAMMA=   0.2152
  0.4971  0.0975  0.0508

 Free energy of the ion-electron system (eV)
  ---------------------------------------------------
  alpha Z        PSCENC =      1551.71138017
  Ewald energy   TEWEN  =    174031.92055102
  -Hartree energ DENC   =   -221677.67127831
  -exchange      EXHF   =         0.00000000
  -V(xc)+E(xc)   XCENC  =       841.76463747
  PAW double counting   =     54688.89551559   -56235.45434862
  entropy T*S    EENTRO =         0.00000000
  eigenvalues    EBANDS =     -1641.84578381
  atomic energy  EATOM  =     47944.02028770
  Solvation  Ediel_sol  =         0.00000000
  ---------------------------------------------------
  free energy    TOTEN  =      -496.65903878 eV

  energy without entropy =     -496.65903878  energy(sigma->0) =     -496.65903878


--------------------------------------------------------------------------------------------------------




--------------------------------------- Iteration      1(   5)  ---------------------------------------


    POTLOK:  cpu time    0.4213: real time    0.4349
    SETDIJ:  cpu time    0.0248: real time    0.0248
    EDDIAG:  cpu time    5.2277: real time    5.2294
  RMM-DIIS:  cpu time   19.1366: real time   19.1502
    ORTHCH:  cpu time    1.4171: real time    1.4173
 BZINTS: Fermi energy: -0.128804;575.000000 electrons
         Band energy:***********;  BLOECHL correction: -0.008099
       DOS:  cpu time    0.0467: real time    0.0468
    CHARGE:  cpu time    0.9629: real time    0.9630
    MIXING:  cpu time    0.0069: real time    0.0069
    --------------------------------------------
      LOOP:  cpu time   27.2432: real time   27.2732

 eigenvalue-minimisations  :  7828
 total energy-change (2. order) :-0.7964831E-02  (-0.2712541E-02)
 number of electron     575.0000075 magnetization     122.1642429
 augmentation part      301.4981864 magnetization      98.5150273

 DIPCOR: dipole corrections for dipol
 direction  3 min pos   242,
 dipolmoment           0.000000      0.000000      0.043121 electrons x Angstroem
 Tr[quadrupol]    -10015.848729

 energy correction for charged system         0.000000 eV
 dipol+quadrupol energy correction           -0.000089 eV
 added-field ion interaction          0.068752 eV  (added to PSCEN)


 Broyden mixing:
  rms(total) = 0.30082E+00    rms(broyden)= 0.30080E+00
  rms(prec ) = 0.33943E+00
  weight for this iteration     100.00

 eigenvalues of (default mixing * dielectric matrix)
  average eigenvalue GAMMA=   0.1907
  0.5422  0.1105  0.0463  0.0637

 Free energy of the ion-electron system (eV)
  ---------------------------------------------------
  alpha Z        PSCENC =      1551.57525509
  Ewald energy   TEWEN  =    174031.92055102
  -Hartree energ DENC   =   -221678.52019408
  -exchange      EXHF   =         0.00000000
  -V(xc)+E(xc)   XCENC  =       841.74989927
  PAW double counting   =     54690.56004341   -56237.15375181
  entropy T*S    EENTRO =         0.00000000
  eigenvalues    EBANDS =     -1640.81909421
  atomic energy  EATOM  =     47944.02028770
  Solvation  Ediel_sol  =         0.00000000
  ---------------------------------------------------
  free energy    TOTEN  =      -496.66700361 eV

  energy without entropy =     -496.66700361  energy(sigma->0) =     -496.66700361


--------------------------------------------------------------------------------------------------------




--------------------------------------- Iteration      1(   6)  ---------------------------------------


    POTLOK:  cpu time    0.4166: real time    0.4297
    SETDIJ:  cpu time    0.0248: real time    0.0248
    EDDIAG:  cpu time    5.2250: real time    5.2265
  RMM-DIIS:  cpu time   19.0776: real time   19.0915
    ORTHCH:  cpu time    1.4147: real time    1.4149
 BZINTS: Fermi energy: -0.133917;575.000000 electrons
         Band energy:***********;  BLOECHL correction: -0.006881
       DOS:  cpu time    0.0456: real time    0.0455
    CHARGE:  cpu time    0.9632: real time    0.9635
    MIXING:  cpu time    0.0069: real time    0.0069
    --------------------------------------------
      LOOP:  cpu time   27.1745: real time   27.2034

 eigenvalue-minimisations  :  7798
 total energy-change (2. order) : 0.2148836E-01  (-0.9175158E-03)
 number of electron     575.0000075 magnetization     122.1696964
 augmentation part      301.5727210 magnetization      98.4122234

 DIPCOR: dipole corrections for dipol
 direction  3 min pos   240,
 dipolmoment           0.000000      0.000000      0.036130 electrons x Angstroem
 Tr[quadrupol]    -10015.802381

 energy correction for charged system         0.000000 eV
 dipol+quadrupol energy correction           -0.000063 eV
 added-field ion interaction         -0.207748 eV  (added to PSCEN)


 Broyden mixing:
  rms(total) = 0.97908E-01    rms(broyden)= 0.97885E-01
  rms(prec ) = 0.11208E+00
  weight for this iteration     100.00

 eigenvalues of (default mixing * dielectric matrix)
  average eigenvalue GAMMA=   0.1890
  0.5125  0.1601  0.1601  0.0504  0.0619

 Free energy of the ion-electron system (eV)
  ---------------------------------------------------
  alpha Z        PSCENC =      1551.29878159
  Ewald energy   TEWEN  =    174031.92055102
  -Hartree energ DENC   =   -221677.01430525
  -exchange      EXHF   =         0.00000000
  -V(xc)+E(xc)   XCENC  =       841.69938314
  PAW double counting   =     54690.79311472   -56237.29513816
  entropy T*S    EENTRO =         0.00000000
  eigenvalues    EBANDS =     -1642.06819000
  atomic energy  EATOM  =     47944.02028770
  Solvation  Ediel_sol  =         0.00000000
  ---------------------------------------------------
  free energy    TOTEN  =      -496.64551525 eV

  energy without entropy =     -496.64551525  energy(sigma->0) =     -496.64551525


--------------------------------------------------------------------------------------------------------




--------------------------------------- Iteration      1(   7)  ---------------------------------------


    POTLOK:  cpu time    0.4234: real time    0.4379
    SETDIJ:  cpu time    0.0250: real time    0.0250
    EDDIAG:  cpu time    5.2075: real time    5.2089
  RMM-DIIS:  cpu time   19.1797: real time   19.1921
    ORTHCH:  cpu time    1.4170: real time    1.4176
 BZINTS: Fermi energy: -0.135659;575.000000 electrons
         Band energy:***********;  BLOECHL correction: -0.007379
       DOS:  cpu time    0.0444: real time    0.0443
    CHARGE:  cpu time    0.9619: real time    0.9621
    MIXING:  cpu time    0.0071: real time    0.0072
    --------------------------------------------
      LOOP:  cpu time   27.2660: real time   27.2950

 eigenvalue-minimisations  :  7881
 total energy-change (2. order) : 0.6103974E-03  (-0.4288715E-03)
 number of electron     575.0000075 magnetization     122.1812115
 augmentation part      301.5835072 magnetization      98.3745961

 DIPCOR: dipole corrections for dipol
 direction  3 min pos   240,
 dipolmoment           0.000000      0.000000      0.036706 electrons x Angstroem
 Tr[quadrupol]    -10015.792414

 energy correction for charged system         0.000000 eV
 dipol+quadrupol energy correction           -0.000065 eV
 added-field ion interaction         -0.211061 eV  (added to PSCEN)


 Broyden mixing:
  rms(total) = 0.10289E+00    rms(broyden)= 0.10289E+00
  rms(prec ) = 0.11602E+00
  weight for this iteration     100.00

 eigenvalues of (default mixing * dielectric matrix)
  average eigenvalue GAMMA=   0.1944
  0.4176  0.4176  0.1547  0.0695  0.0482  0.0589

 Free energy of the ion-electron system (eV)
  ---------------------------------------------------
  alpha Z        PSCENC =      1551.29546659
  Ewald energy   TEWEN  =    174031.92055102
  -Hartree energ DENC   =   -221676.62363473
  -exchange      EXHF   =         0.00000000
  -V(xc)+E(xc)   XCENC  =       841.70033849
  PAW double counting   =     54691.12689611   -56237.61552282
  entropy T*S    EENTRO =         0.00000000
  eigenvalues    EBANDS =     -1642.46928721
  atomic energy  EATOM  =     47944.02028770
  Solvation  Ediel_sol  =         0.00000000
  ---------------------------------------------------
  free energy    TOTEN  =      -496.64490485 eV

  energy without entropy =     -496.64490485  energy(sigma->0) =     -496.64490485


--------------------------------------------------------------------------------------------------------




--------------------------------------- Iteration      1(   8)  ---------------------------------------


    POTLOK:  cpu time    0.4354: real time    0.4361
    SETDIJ:  cpu time    0.0249: real time    0.0249
    EDDIAG:  cpu time    5.1984: real time    5.1995
  RMM-DIIS:  cpu time   19.7136: real time   19.7276
    ORTHCH:  cpu time    1.4141: real time    1.4142
 BZINTS: Fermi energy: -0.135168;575.000000 electrons
         Band energy:***********;  BLOECHL correction: -0.007098
       DOS:  cpu time    0.0467: real time    0.0466
    CHARGE:  cpu time    0.9676: real time    0.9677
    MIXING:  cpu time    0.0071: real time    0.0071
    --------------------------------------------
      LOOP:  cpu time   27.8076: real time   27.8237

 eigenvalue-minimisations  :  8085
 total energy-change (2. order) : 0.9637955E-03  (-0.1919252E-03)
 number of electron     575.0000075 magnetization     122.2008061
 augmentation part      301.5823196 magnetization      98.3999735

 DIPCOR: dipole corrections for dipol
 direction  3 min pos   240,
 dipolmoment           0.000000      0.000000      0.034707 electrons x Angstroem
 Tr[quadrupol]    -10015.799377

 energy correction for charged system         0.000000 eV
 dipol+quadrupol energy correction           -0.000058 eV
 added-field ion interaction         -0.199565 eV  (added to PSCEN)


 Broyden mixing:
  rms(total) = 0.84683E-01    rms(broyden)= 0.84680E-01
  rms(prec ) = 0.10120E+00
  weight for this iteration     100.00

 eigenvalues of (default mixing * dielectric matrix)
  average eigenvalue GAMMA=   0.2480
  0.6319  0.6319  0.1722  0.0953  0.0953  0.0495  0.0603

 Free energy of the ion-electron system (eV)
  ---------------------------------------------------
  alpha Z        PSCENC =      1551.30696921
  Ewald energy   TEWEN  =    174031.92055102
  -Hartree energ DENC   =   -221676.71899642
  -exchange      EXHF   =         0.00000000
  -V(xc)+E(xc)   XCENC  =       841.70863906
  PAW double counting   =     54691.75670686   -56238.25157050
  entropy T*S    EENTRO =         0.00000000
  eigenvalues    EBANDS =     -1642.38652799
  atomic energy  EATOM  =     47944.02028770
  Solvation  Ediel_sol  =         0.00000000
  ---------------------------------------------------
  free energy    TOTEN  =      -496.64394106 eV

  energy without entropy =     -496.64394106  energy(sigma->0) =     -496.64394106


--------------------------------------------------------------------------------------------------------




--------------------------------------- Iteration      1(   9)  ---------------------------------------


    POTLOK:  cpu time    0.4256: real time    0.4391
    SETDIJ:  cpu time    0.0249: real time    0.0249
    EDDIAG:  cpu time    5.2052: real time    5.2065
  RMM-DIIS:  cpu time   18.9882: real time   19.0028
    ORTHCH:  cpu time    1.4182: real time    1.4184
 BZINTS: Fermi energy: -0.136196;575.000000 electrons
         Band energy:***********;  BLOECHL correction: -0.007302
       DOS:  cpu time    0.0442: real time    0.0443
    CHARGE:  cpu time    0.9625: real time    0.9626
    MIXING:  cpu time    0.0073: real time    0.0073
    --------------------------------------------
      LOOP:  cpu time   27.0768: real time   27.1058

 eigenvalue-minimisations  :  7796
 total energy-change (2. order) : 0.1362893E-02  (-0.2273208E-03)
 number of electron     575.0000075 magnetization     122.2172754
 augmentation part      301.5749344 magnetization      98.4527603

 DIPCOR: dipole corrections for dipol
 direction  3 min pos   242,
 dipolmoment           0.000000      0.000000      0.040129 electrons x Angstroem
 Tr[quadrupol]    -10015.807397

 energy correction for charged system         0.000000 eV
 dipol+quadrupol energy correction           -0.000077 eV
 added-field ion interaction          0.063981 eV  (added to PSCEN)


 Broyden mixing:
  rms(total) = 0.99042E-01    rms(broyden)= 0.99039E-01
  rms(prec ) = 0.10961E+00
  weight for this iteration     100.00

 eigenvalues of (default mixing * dielectric matrix)
  average eigenvalue GAMMA=   0.2731
  0.7549  0.7549  0.2796  0.1305  0.0997  0.0493  0.0607  0.0552

 Free energy of the ion-electron system (eV)
  ---------------------------------------------------
  alpha Z        PSCENC =      1551.57049555
  Ewald energy   TEWEN  =    174031.92055102
  -Hartree energ DENC   =   -221676.56014123
  -exchange      EXHF   =         0.00000000
  -V(xc)+E(xc)   XCENC  =       841.71847612
  PAW double counting   =     54692.84692924   -56239.36448001
  entropy T*S    EENTRO =         0.00000000
  eigenvalues    EBANDS =     -1642.79469656
  atomic energy  EATOM  =     47944.02028770
  Solvation  Ediel_sol  =         0.00000000
  ---------------------------------------------------
  free energy    TOTEN  =      -496.64257817 eV

  energy without entropy =     -496.64257817  energy(sigma->0) =     -496.64257817


--------------------------------------------------------------------------------------------------------




--------------------------------------- Iteration      1(  10)  ---------------------------------------


    POTLOK:  cpu time    0.4216: real time    0.4374
    SETDIJ:  cpu time    0.0248: real time    0.0248
    EDDIAG:  cpu time    5.2026: real time    5.2038
  RMM-DIIS:  cpu time   19.1452: real time   19.1573
    ORTHCH:  cpu time    1.4148: real time    1.4150
 BZINTS: Fermi energy: -0.137049;575.000000 electrons
         Band energy:***********;  BLOECHL correction: -0.007164
       DOS:  cpu time    0.0432: real time    0.0432
    CHARGE:  cpu time    0.9617: real time    0.9619
    MIXING:  cpu time    0.0076: real time    0.0076
    --------------------------------------------
      LOOP:  cpu time   27.2215: real time   27.2510

 eigenvalue-minimisations  :  7853
 total energy-change (2. order) : 0.2594428E-02  (-0.1886925E-03)
 number of electron     575.0000075 magnetization     122.2607970
 augmentation part      301.5991453 magnetization      98.4554949

 DIPCOR: dipole corrections for dipol
 direction  3 min pos   238,
 dipolmoment           0.000000      0.000000      0.037217 electrons x Angstroem
 Tr[quadrupol]    -10015.761966

 energy correction for charged system         0.000000 eV
 dipol+quadrupol energy correction           -0.000067 eV
 added-field ion interaction         -0.487336 eV  (added to PSCEN)


 Broyden mixing:
  rms(total) = 0.69441E-01    rms(broyden)= 0.69439E-01
  rms(prec ) = 0.79060E-01
  weight for this iteration     100.00

 eigenvalues of (default mixing * dielectric matrix)
  average eigenvalue GAMMA=   0.3678
  1.0830  1.0830  0.5992  0.1548  0.1300  0.0871  0.0495  0.0590  0.0651

 Free energy of the ion-electron system (eV)
  ---------------------------------------------------
  alpha Z        PSCENC =      1551.01919006
  Ewald energy   TEWEN  =    174031.92055102
  -Hartree energ DENC   =   -221675.65325809
  -exchange      EXHF   =         0.00000000
  -V(xc)+E(xc)   XCENC  =       841.72083334
  PAW double counting   =     54693.53070763   -56240.05090556
  entropy T*S    EENTRO =         0.00000000
  eigenvalues    EBANDS =     -1643.14738983
  atomic energy  EATOM  =     47944.02028770
  Solvation  Ediel_sol  =         0.00000000
  ---------------------------------------------------
  free energy    TOTEN  =      -496.63998374 eV

  energy without entropy =     -496.63998374  energy(sigma->0) =     -496.63998374


--------------------------------------------------------------------------------------------------------




--------------------------------------- Iteration      1(  11)  ---------------------------------------


    POTLOK:  cpu time    0.4223: real time    0.4324
    SETDIJ:  cpu time    0.0249: real time    0.0249
    EDDIAG:  cpu time    5.2091: real time    5.2103
  RMM-DIIS:  cpu time   18.9607: real time   18.9745
    ORTHCH:  cpu time    1.4169: real time    1.4171
 BZINTS: Fermi energy: -0.135377;575.000000 electrons
         Band energy:***********;  BLOECHL correction: -0.007242
       DOS:  cpu time    0.0478: real time    0.0478
    CHARGE:  cpu time    0.9615: real time    0.9616
    MIXING:  cpu time    0.0078: real time    0.0078
    --------------------------------------------
      LOOP:  cpu time   27.0502: real time   27.0765

 eigenvalue-minimisations  :  7752
 total energy-change (2. order) : 0.2670896E-02  (-0.2135184E-03)
 number of electron     575.0000075 magnetization     122.2749629
 augmentation part      301.5797611 magnetization      98.4805456

 DIPCOR: dipole corrections for dipol
 direction  3 min pos   235,
 dipolmoment           0.000000      0.000000      0.038220 electrons x Angstroem
 Tr[quadrupol]    -10015.763883

 energy correction for charged system         0.000000 eV
 dipol+quadrupol energy correction           -0.000070 eV
 added-field ion interaction         -0.921518 eV  (added to PSCEN)


 Broyden mixing:
  rms(total) = 0.83542E-01    rms(broyden)= 0.83540E-01
  rms(prec ) = 0.93164E-01
  weight for this iteration     100.00

 eigenvalues of (default mixing * dielectric matrix)
  average eigenvalue GAMMA=   0.3540
  1.1211  1.1211  0.6075  0.1562  0.1562  0.1169  0.0902  0.0494  0.0626  0.0583

 Free energy of the ion-electron system (eV)
  ---------------------------------------------------
  alpha Z        PSCENC =      1550.58500415
  Ewald energy   TEWEN  =    174031.92055102
  -Hartree energ DENC   =   -221676.20151518
  -exchange      EXHF   =         0.00000000
  -V(xc)+E(xc)   XCENC  =       841.72087066
  PAW double counting   =     54695.73671548   -56242.36710673
  entropy T*S    EENTRO =         0.00000000
  eigenvalues    EBANDS =     -1642.05211994
  atomic energy  EATOM  =     47944.02028770
  Solvation  Ediel_sol  =         0.00000000
  ---------------------------------------------------
  free energy    TOTEN  =      -496.63731284 eV

  energy without entropy =     -496.63731284  energy(sigma->0) =     -496.63731284


--------------------------------------------------------------------------------------------------------




--------------------------------------- Iteration      1(  12)  ---------------------------------------


    POTLOK:  cpu time    0.4204: real time    0.4357
    SETDIJ:  cpu time    0.0250: real time    0.0250
    EDDIAG:  cpu time    5.2529: real time    5.2542
  RMM-DIIS:  cpu time   19.2655: real time   19.2723
    ORTHCH:  cpu time    1.4138: real time    1.4140
 BZINTS: Fermi energy: -0.135316;575.000000 electrons
         Band energy:***********;  BLOECHL correction: -0.007198
       DOS:  cpu time    0.0477: real time    0.0477
    CHARGE:  cpu time    0.9752: real time    0.9822
    MIXING:  cpu time    0.0079: real time    0.0079
    --------------------------------------------
      LOOP:  cpu time   27.4084: real time   27.4389

 eigenvalue-minimisations  :  7869
 total energy-change (2. order) : 0.1599099E-02  (-0.9535327E-04)
 number of electron     575.0000075 magnetization     122.2956067
 augmentation part      301.5854336 magnetization      98.4970604

 DIPCOR: dipole corrections for dipol
 direction  3 min pos   233,
 dipolmoment           0.000000      0.000000      0.037972 electrons x Angstroem
 Tr[quadrupol]    -10015.744541

 energy correction for charged system         0.000000 eV
 dipol+quadrupol energy correction           -0.000069 eV
 added-field ion interaction         -1.194427 eV  (added to PSCEN)


 Broyden mixing:
  rms(total) = 0.76741E-01    rms(broyden)= 0.76740E-01
  rms(prec ) = 0.84924E-01
  weight for this iteration     100.00

 eigenvalues of (default mixing * dielectric matrix)
  average eigenvalue GAMMA=   0.3390
  1.1406  1.1406  0.6027  0.1687  0.1687  0.1244  0.1244  0.0861  0.0495  0.0588
  0.0644

 Free energy of the ion-electron system (eV)
  ---------------------------------------------------
  alpha Z        PSCENC =      1550.31209587
  Ewald energy   TEWEN  =    174031.92055102
  -Hartree energ DENC   =   -221675.86178094
  -exchange      EXHF   =         0.00000000
  -V(xc)+E(xc)   XCENC  =       841.72246341
  PAW double counting   =     54696.19225816   -56242.82748624
  entropy T*S    EENTRO =         0.00000000
  eigenvalues    EBANDS =     -1642.11410273
  atomic energy  EATOM  =     47944.02028770
  Solvation  Ediel_sol  =         0.00000000
  ---------------------------------------------------
  free energy    TOTEN  =      -496.63571374 eV

  energy without entropy =     -496.63571374  energy(sigma->0) =     -496.63571374


--------------------------------------------------------------------------------------------------------




--------------------------------------- Iteration      1(  13)  ---------------------------------------


    POTLOK:  cpu time    0.4216: real time    0.4350
    SETDIJ:  cpu time    0.0248: real time    0.0248
    EDDIAG:  cpu time    5.2517: real time    5.2531
  RMM-DIIS:  cpu time   20.3059: real time   20.3124
    ORTHCH:  cpu time    1.4173: real time    1.4176
 BZINTS: Fermi energy: -0.135637;575.000000 electrons
         Band energy:***********;  BLOECHL correction: -0.007280
[...]
   0.912E+00 0.906E+01 0.213E+04   -.838E+00 -.878E+01 -.213E+04   -.100E+00 0.357E-01 -.194E+01   -.390E-04 0.565E-03 0.426E-03
   -.952E+02 -.422E+02 -.188E+04   0.972E+02 0.434E+02 0.188E+04   -.195E+01 -.124E+01 0.199E+01   0.240E-03 0.183E-03 0.582E-03
   0.205E+02 -.309E+02 0.874E+03   -.205E+02 0.311E+02 -.873E+03   0.244E+00 0.202E+00 0.238E+00   -.396E-03 0.226E-03 0.171E-02
   0.564E+02 -.786E+02 -.507E+03   -.567E+02 0.789E+02 0.506E+03   0.322E+00 -.392E+00 0.395E+00   -.480E-03 -.808E-04 0.180E-02
   -.841E+01 0.966E+01 0.214E+04   0.852E+01 -.946E+01 -.213E+04   -.283E-02 0.193E+00 -.232E+01   0.473E-03 0.704E-03 0.477E-03
   0.835E+02 -.318E+02 -.184E+04   -.855E+02 0.328E+02 0.184E+04   0.197E+01 -.105E+01 0.247E+01   0.325E-05 0.937E-04 0.483E-03
   -.434E+02 0.507E+01 0.839E+03   0.436E+02 -.503E+01 -.838E+03   0.231E-01 0.238E+00 0.762E-02   0.781E-04 0.935E-03 0.195E-02
   -.176E+02 0.458E+00 0.797E+03   0.177E+02 -.411E+00 -.797E+03   -.143E+00 0.787E+00 -.360E+00   0.707E-03 0.675E-03 0.171E-02
   -.413E+02 -.162E+02 -.519E+03   0.417E+02 0.162E+02 0.519E+03   -.387E+00 0.290E-01 0.335E+00   0.322E-03 0.626E-03 0.231E-02
   0.310E+02 -.538E+02 -.516E+03   -.313E+02 0.540E+02 0.516E+03   0.321E+00 -.207E+00 0.587E+00   0.165E-03 0.753E-04 0.179E-02
   -.185E+02 0.444E+02 0.786E+03   0.185E+02 -.447E+02 -.786E+03   -.171E+00 0.488E-01 -.433E+00   -.380E-03 -.513E-03 0.136E-02
   0.133E+02 0.145E+01 0.796E+03   -.127E+02 -.139E+01 -.795E+03   0.204E+00 -.121E+00 -.178E+00   -.237E-03 -.472E-03 0.148E-02
   0.273E+02 0.247E+02 -.542E+03   -.272E+02 -.249E+02 0.543E+03   0.257E-01 0.194E+00 -.443E+00   -.346E-03 -.490E-03 0.151E-02
   -.394E+02 0.346E+02 -.554E+03   0.395E+02 -.348E+02 0.555E+03   -.872E-01 0.196E+00 -.885E+00   0.177E-03 0.353E-03 0.193E-02
   -.312E+02 0.681E+02 -.515E+03   0.313E+02 -.685E+02 0.516E+03   -.126E+00 0.476E+00 -.277E+00   -.120E-03 -.831E-04 0.164E-02
   0.747E+01 0.323E+02 0.263E+04   -.760E+01 -.323E+02 -.263E+04   0.597E-01 0.139E+00 -.449E+00   -.448E-03 -.710E-03 0.562E-03
   0.946E+01 0.193E+03 -.232E+04   -.921E+01 -.195E+03 0.232E+04   -.256E+00 0.297E+01 0.105E+01   -.626E-04 -.212E-03 0.951E-03
   -.897E+01 0.270E+01 0.266E+04   0.922E+01 -.280E+01 -.266E+04   -.464E+00 0.105E+00 -.112E+01   -.588E-03 -.442E-03 0.630E-03
   -.132E+03 -.779E+02 -.232E+04   0.134E+03 0.793E+02 0.232E+04   -.213E+01 -.139E+01 0.306E+00   -.428E-03 -.182E-03 0.757E-03
   0.104E+02 -.287E+02 0.261E+04   -.106E+02 0.292E+02 -.261E+04   0.194E+00 -.490E+00 -.185E+01   0.710E-03 -.495E-03 -.115E-03
   0.109E+02 -.348E+02 -.222E+04   -.116E+02 0.346E+02 0.222E+04   0.627E+00 0.164E+00 0.254E+01   0.302E-03 0.231E-03 0.965E-03
   0.124E+02 -.196E+02 0.264E+04   -.125E+02 0.195E+02 -.263E+04   0.545E-01 0.417E-01 -.144E+01   0.682E-03 -.755E-04 0.537E-03
   0.302E+02 -.822E+01 -.225E+04   -.296E+02 0.776E+01 0.225E+04   -.648E+00 0.461E+00 0.228E+01   0.300E-03 0.171E-04 0.595E-03
   -.111E+02 0.961E+02 -.593E+03   0.110E+02 -.965E+02 0.592E+03   0.901E-01 0.438E+00 0.692E+00   -.480E-03 -.205E-03 0.217E-02
   0.286E+02 -.430E+02 0.108E+04   -.286E+02 0.428E+02 -.108E+04   -.161E-01 -.212E+00 -.251E+00   -.838E-03 -.243E-03 0.193E-02
   -.694E+02 -.121E+02 -.591E+03   0.695E+02 0.120E+02 0.592E+03   -.630E-01 0.872E-01 -.654E+00   -.701E-03 -.180E-03 0.247E-02
   0.849E+02 -.677E+02 -.572E+03   -.853E+02 0.679E+02 0.572E+03   0.382E+00 -.216E+00 0.563E+00   -.905E-04 -.940E-04 0.225E-02
   -.506E+02 -.275E+02 -.627E+03   0.506E+02 0.277E+02 0.627E+03   -.319E-01 -.150E+00 0.706E+00   -.205E-05 0.478E-03 0.269E-02
   0.285E+02 0.350E+01 0.104E+04   -.285E+02 -.357E+01 -.104E+04   0.155E+00 0.364E-01 -.229E+00   0.496E-03 0.341E-03 0.215E-02
   0.531E+02 -.168E+02 -.630E+03   -.533E+02 0.170E+02 0.630E+03   0.199E+00 -.131E+00 0.461E+00   0.355E-03 0.666E-04 0.239E-02
   -.296E+02 0.553E+02 0.106E+04   0.294E+02 -.555E+02 -.106E+04   -.588E-01 0.277E+00 -.280E-01   0.250E-03 0.348E-03 0.201E-02
   0.477E+01 -.498E+02 -.185E+04   -.478E+01 0.504E+02 0.187E+04   0.777E-02 -.548E+00 -.259E+02   0.203E-04 -.482E-04 -.617E-03
   0.718E+02 -.294E+01 -.192E+04   -.713E+02 0.294E+01 0.195E+04   -.554E+00 -.288E-01 -.278E+02   -.710E-05 0.133E-03 -.288E-03
   -.830E+01 0.335E+01 -.187E+04   0.896E+01 -.416E+01 0.190E+04   -.648E+00 0.805E+00 -.258E+02   0.707E-04 0.969E-04 -.401E-03
   -.486E+02 0.529E+02 -.193E+04   0.497E+02 -.504E+02 0.195E+04   -.111E+01 -.246E+01 -.272E+02   -.459E-04 -.182E-04 -.606E-03
   0.410E+01 -.217E+02 -.186E+04   -.559E+01 0.189E+02 0.184E+04   0.149E+01 0.274E+01 0.198E+02   0.126E-03 0.951E-04 -.644E-03
   -.294E+01 -.135E+01 -.366E+03   0.324E+01 0.128E+01 0.374E+03   -.307E+00 0.429E-01 -.827E+01   0.969E-05 0.817E-05 -.201E-03
 -----------------------------------------------------------------------------------------------
   0.188E+01 -.173E+01 0.928E+02   -.724E-12 -.373E-12 -.216E-11   -.188E+01 0.173E+01 -.929E+02   -.166E-03 0.156E-03 0.748E-01
 
 
 POSITION                                       TOTAL-FORCE (eV/Angst)
 -----------------------------------------------------------------------------------
     -5.03208      8.74992      2.05921        -0.221717     -0.008406     -0.055674
     -5.01862      8.73445      8.10474        -0.001872      0.009474      0.010453
      0.00574      8.72607      2.04466        -0.251269      0.366138      0.001690
      0.07867      8.69219      8.07852         0.017659     -0.007767     -0.014489
      2.47665      8.72592      2.00821         0.328845      0.171377      0.125776
      2.60839      8.71804      8.19789        -0.001592      0.024976      0.016749
      1.23891      2.21748      2.05880         0.397103     -0.211320     -0.399196
      1.30976      2.14456      8.12892        -0.001144      0.019293     -0.014264
      0.08074      1.41419      4.05321        -0.766471      0.648795      0.182415
      2.49330      1.45451      4.14829         0.421861      0.185659     -0.774069
      1.26821      0.69047      6.14437        -0.019626      0.002161     -0.021670
      5.06166      1.44930      4.13498        -0.553990      0.234823     -0.457664
      3.77740      0.72477      6.20960        -0.005026      0.012322      0.016863
      7.51557      1.45812      4.11001         0.637488     -0.135922     -0.428596
      6.34591      0.71429      6.16032        -0.014880      0.012152     -0.007858
     -2.55062      4.47399      2.00995         0.265665     -0.784328      0.252296
     -2.47950      4.38239      8.01123        -0.053718     -0.010060     -0.022569
      0.03014      4.42905      2.07020        -0.383836     -0.629419     -0.255910
      0.05470      4.28159      8.19356        -0.003250     -0.047795     -0.030268
      2.50847      4.40516      2.07435         0.400082     -0.467546     -0.169360
      2.58741      4.34494      7.98714        -0.004096      0.001671     -0.004167
      1.32139      3.64145      4.02771        -0.078583     -0.098459      0.497798
      5.08382      4.44890      2.04815        -0.522732     -0.856093     -0.147777
      5.10773      4.33141      8.38372         0.003113     -0.060972     -0.011458
      3.79377      3.69800      4.13071        -0.661644     -0.662441     -0.318320
      2.52266      2.93250      6.05344         0.017203      0.010731     -0.009659
      6.25293      3.64956      4.08305         0.694680     -0.107224      0.285345
      5.08613      2.92502      6.25091        -0.008231     -0.044550      0.003427
      6.25194      6.54167      2.03547         0.399366      0.540192     -0.064399
     -3.71567      6.60341      8.25791         0.005305     -0.025507      0.010257
     -1.23133      6.52951      2.06361        -0.370210      0.390330     -0.570499
     -1.22321      6.55834      8.26856        -0.023297      0.002634     -0.019814
     -2.52172      5.87475      4.08745        -0.156871     -0.291845      0.135198
      1.28426      6.55944      2.07409        -0.029589      0.307399     -0.438528
      1.33941      6.53549      8.19694         0.020582      0.012313     -0.003731
     -0.00626      5.79145      4.04458         0.210406      0.443715      0.773804
     -1.20630      5.06451      6.07638         0.020480     -0.005617      0.003055
      3.77628      6.55571      2.00000         0.105683      0.397489     -0.102200
      3.79678      6.58058      8.24292         0.002609     -0.039591     -0.035185
      2.52387      5.78801      4.07310         0.233344      0.277271      0.354509
      5.06734      5.79704      4.10517        -0.059698      0.828610      0.039513
      3.84900      5.11634      6.12277        -0.003721      0.013725      0.002889
      6.33158      5.10059      6.14916         0.002371      0.019659      0.021535
     -3.76296      8.02446      4.11956        -0.211907     -0.240575     -0.122267
     -1.33707      8.05044      4.10308         0.718798     -0.053934      0.290800
     -2.50274      7.25854      6.20786         0.030197      0.001888     -0.036767
      2.52725      7.27237      6.12523         0.001987     -0.013686      0.003582
      5.07084      7.30286      6.08962        -0.007016     -0.018386      0.002544
     -2.52690      8.74056      2.03303        -0.074645      0.083261      0.405950
     -2.45838      8.70575      8.26467         0.000829      0.000231      0.011947
     -1.24953      2.18697      2.05404        -0.194097     -0.002834      0.319911
     -1.16214      2.19764      8.11303         0.002300      0.016638     -0.038234
      3.77687      2.20348      2.02824        -0.003419      0.036106      0.657222
      3.81023      2.14749      8.28990         0.007673      0.019668     -0.004026
      6.31052      2.19548      2.03586         0.012572      0.024151      0.217132
      6.41296      2.13728      8.27313        -0.024930     -0.004057     -0.011014
      8.87978      0.73604      6.08416        -0.016973      0.011177     -0.015363
     -1.27338      3.65234      4.08853        -0.018693     -0.363964     -0.272998
      0.03728      2.90553      6.08419        -0.003367     -0.013213      0.018436
      7.58508      2.88345      6.09463         0.016049     -0.013421      0.000689
      1.27080      5.08677      6.08179        -0.007682      0.021191      0.015474
      1.25660      8.01495      4.09194         0.091729     -0.030069      0.135871
      0.01952      7.24758      6.08870        -0.003296     -0.011920     -0.025073
      3.80919      8.00883      4.09175        -0.325839      0.120618     -0.087200
      5.08546      5.93390      9.39027        -0.000492      0.087303      0.049892
      2.36738      1.43096      9.38577         0.008100     -0.023868      0.024285
      0.07952      5.75860      9.34000         0.006990     -0.007482      0.053934
      7.82796      1.34534      9.34396         0.011623      0.000368      0.028293
      5.13889      2.85682      9.66985         0.000544     -0.030960     -0.008586
      5.17534      2.85475     10.64179        -0.003818     -0.032277      0.029316
 -----------------------------------------------------------------------------------
    total drift:                                0.001188      0.005547     -0.008966


--------------------------------------------------------------------------------------------------------



  FREE ENERGIE OF THE ION-ELECTRON SYSTEM (eV)
  ---------------------------------------------------
  free  energy   TOTEN  =      -511.44401656 eV

  energy  without entropy=     -511.44401656  energy(sigma->0) =     -511.44401656
 


--------------------------------------------------------------------------------------------------------


    POTLOK:  cpu time    0.4446: real time    0.4446


--------------------------------------------------------------------------------------------------------


 stress matrix after NEB project (eV)
    -23.22704     -0.17241      0.15845
     -0.17241    -21.70096      0.74789
      0.15845      0.74789      0.05886
  FORCES: max atom, RMS     0.100555    0.027044
  FORCE total and by dimension    0.226265    0.087303
  Stress total and by dimension   31.806580   23.227036
 writing wavefunctions
     LOOP+:  cpu time 1366.3719: real time 1393.3567
    4ORBIT:  cpu time    0.0000: real time    0.0000
 


 total charge     
 
# of ion       s       p       d       tot
------------------------------------------
    1        0.479   0.398   6.172   7.049
    2        0.465   0.406   6.202   7.072
    3        0.473   0.389   6.152   7.014
    4        0.477   0.406   6.190   7.072
    5        0.467   0.384   6.153   7.004
    6        0.496   0.553   6.244   7.293
    7        0.480   0.406   6.182   7.067
    8        0.502   0.552   6.269   7.323
    9        0.485   0.520   6.226   7.231
   10        0.495   0.537   6.245   7.277
   11        0.493   0.541   6.254   7.289
   12        0.475   0.504   6.209   7.188
   13        0.477   0.518   6.211   7.206
   14        0.472   0.491   6.184   7.148
   15        0.481   0.516   6.226   7.223
   16        0.474   0.391   6.172   7.036
   17        0.479   0.413   6.203   7.095
   18        0.493   0.423   6.210   7.126
   19        0.470   0.502   6.210   7.182
   20        0.496   0.431   6.208   7.135
   21        0.482   0.428   6.209   7.119
   22        0.498   0.551   6.302   7.351
   23        0.488   0.417   6.193   7.098
   24        0.431   0.536   6.203   7.170
   25        0.493   0.536   6.310   7.339
   26        0.495   0.538   6.245   7.278
   27        0.483   0.517   6.224   7.224
   28        0.471   0.508   6.187   7.165
   29        0.489   0.426   6.199   7.114
   30        0.475   0.519   6.227   7.222
   31        0.490   0.424   6.200   7.114
   32        0.468   0.502   6.216   7.187
   33        0.490   0.533   6.253   7.277
   34        0.494   0.446   6.216   7.156
   35        0.472   0.515   6.223   7.210
   36        0.493   0.537   6.241   7.271
   37        0.480   0.517   6.220   7.217
   38        0.480   0.417   6.188   7.084
   39        0.484   0.528   6.239   7.251
   40        0.493   0.534   6.246   7.273
   41        0.498   0.549   6.264   7.312
   42        0.495   0.542   6.253   7.289
   43        0.487   0.534   6.239   7.260
   44        0.506   0.564   6.195   7.264
   45        0.484   0.515   6.230   7.229
   46        0.486   0.531   6.222   7.239
   47        0.479   0.515   6.193   7.186
   48        0.488   0.530   6.242   7.261
   49        0.502   0.386   8.313   9.202
   50        0.514   0.519   8.331   9.364
   51        0.494   0.376   8.308   9.178
   52        0.506   0.518   8.331   9.356
   53        0.484   0.358   8.310   9.152
   54        0.449   0.504   8.339   9.291
   55        0.500   0.373   8.309   9.182
   56        0.445   0.507   8.342   9.294
   57        0.509   0.521   8.318   9.348
   58        0.508   0.503   8.320   9.332
   59        0.513   0.527   8.305   9.345
   60        0.511   0.516   8.321   9.348
   61        0.522   0.544   8.325   9.391
   62        0.518   0.528   8.312   9.358
   63        0.511   0.528   8.308   9.347
   64        0.511   0.516   8.307   9.335
   65        1.579   3.387   0.000   4.966
   66        1.582   3.346   0.000   4.928
   67        1.578   3.385   0.000   4.963
   68        1.581   3.347   0.000   4.928
   69        1.543   3.557   0.000   5.100
   70        0.605   0.121   0.000   0.726
--------------------------------------------------
tot         39.672  48.355 431.599 519.626
 


 magnetization (x)
 
# of ion       s       p       d       tot
------------------------------------------
    1        0.007  -0.005   2.648   2.650
    2       -0.000  -0.004   2.855   2.851
    3        0.004  -0.010   2.790   2.784
    4        0.000  -0.002   2.897   2.895
    5        0.002  -0.010   2.782   2.773
    6       -0.003  -0.014   2.353   2.336
    7        0.000  -0.005   2.648   2.643
    8        0.002  -0.010   2.242   2.235
    9       -0.001  -0.017   2.381   2.364
   10       -0.004  -0.018   2.268   2.245
   11       -0.010  -0.030   2.335   2.296
   12       -0.009  -0.031   2.503   2.463
   13       -0.013  -0.038   2.629   2.579
   14       -0.002  -0.014   2.706   2.690
   15       -0.009  -0.031   2.589   2.548
   16       -0.000  -0.010   2.752   2.741
   17       -0.003  -0.009   2.867   2.855
   18       -0.001  -0.014   2.580   2.564
   19        0.005   0.001   2.587   2.593
   20       -0.000  -0.007   2.532   2.525
   21       -0.003  -0.013   2.852   2.837
   22       -0.031  -0.057  -0.386  -0.474
   23       -0.003  -0.014   2.674   2.657
   24       -0.006   0.004   2.671   2.669
   25       -0.029  -0.056   0.128   0.044
   26       -0.004  -0.027   2.338   2.307
   27       -0.009  -0.034   2.487   2.444
   28       -0.001  -0.027   2.597   2.569
   29       -0.003  -0.020   2.601   2.578
   30        0.003  -0.010   2.478   2.472
   31       -0.011  -0.020   2.669   2.637
   32        0.006  -0.006   2.552   2.552
   33       -0.014  -0.041   2.264   2.209
   34       -0.012  -0.034   2.579   2.533
   35        0.003  -0.011   2.508   2.501
   36       -0.009  -0.030   2.470   2.432
   37       -0.010  -0.034   2.605   2.561
   38       -0.010  -0.028   2.657   2.619
   39       -0.002  -0.022   2.339   2.315
   40       -0.006  -0.028   2.366   2.332
   41       -0.010  -0.032   2.245   2.203
   42       -0.015  -0.045   2.306   2.247
   43       -0.019  -0.052   2.536   2.465
   44       -0.044  -0.074  -2.044  -2.162
   45       -0.004  -0.032   2.379   2.343
   46       -0.003  -0.028   2.370   2.340
   47        0.000  -0.022   2.562   2.540
   48       -0.009  -0.036   2.361   2.316
   49       -0.030  -0.031   0.598   0.537
   50       -0.025  -0.025   0.597   0.547
   51       -0.031  -0.031   0.708   0.647
   52       -0.017  -0.019   0.595   0.560
   53       -0.026  -0.021   0.673   0.626
   54       -0.019  -0.022   0.711   0.669
   55       -0.029  -0.023   0.748   0.696
   56       -0.017  -0.022   0.659   0.620
   57       -0.029  -0.054   0.787   0.704
   58       -0.022  -0.054   0.674   0.599
   59       -0.014  -0.031   0.602   0.558
   60       -0.024  -0.045   0.756   0.686
   61       -0.028  -0.061   0.738   0.648
   62       -0.027  -0.074   0.748   0.646
   63       -0.032  -0.067   0.812   0.712
   64       -0.022  -0.056   0.704   0.626
   65        0.004   0.099   0.000   0.103
   66        0.003   0.088   0.000   0.091
   67        0.004   0.110   0.000   0.114
   68        0.003   0.095   0.000   0.098
   69        0.011   0.119   0.000   0.131
   70        0.003   0.002   0.000   0.005
--------------------------------------------------
tot         -0.655  -1.227 123.220 121.338
 
 BZINTS: Fermi energy: -0.141398;575.000000 electrons
         Band energy:***********;  BLOECHL correction: -0.007280

 total amount of memory used by VASP MPI-rank0   113878. kBytes
=======================================================================

   base      :      30000. kBytes
   nonlr-proj:      14137. kBytes
   fftplans  :       6403. kBytes
   grid      :      18928. kBytes
   one-center:         93. kBytes
   wavefun   :      44317. kBytes
 
  
  
 General timing and accounting informations for this job:
 ========================================================
  
                  Total CPU time used (sec):     1534.982
                            User time (sec):     1353.777
                          System time (sec):      181.205
                         Elapsed time (sec):     1567.047
  
                   Maximum memory used (kb):      348140.
                   Average memory used (kb):           0.
  
                          Minor page faults:     24733056
                          Major page faults:            0
                 Voluntary context switches:         4674
