Automatically generated mesh
      19
Reciprocal lattice
    0.00000000000000    0.00000000000000    0.00000000000000             1
    0.33333333333333    0.00000000000000    0.00000000000000             2
    0.00000000000000    0.33333333333333    0.00000000000000             2
    0.33333333333333    0.33333333333333    0.00000000000000             2
   -0.33333333333333    0.33333333333333    0.00000000000000             2
    0.00000000000000    0.00000000000000    0.25000000000000             2
    0.33333333333333    0.00000000000000    0.25000000000000             2
   -0.33333333333333    0.00000000000000    0.25000000000000             2
    0.00000000000000    0.33333333333333    0.25000000000000             2
    0.33333333333333    0.33333333333333    0.25000000000000             2
   -0.33333333333333    0.33333333333333    0.25000000000000             2
    0.00000000000000   -0.33333333333333    0.25000000000000             2
    0.33333333333333   -0.33333333333333    0.25000000000000             2
   -0.33333333333333   -0.33333333333333    0.25000000000000             2
    0.00000000000000    0.00000000000000    0.50000000000000             1
    0.33333333333333    0.00000000000000    0.50000000000000             2
    0.00000000000000    0.33333333333333    0.50000000000000             2
    0.33333333333333    0.33333333333333    0.50000000000000             2
   -0.33333333333333    0.33333333333333    0.50000000000000             2
Tetrahedra
       106    0.00462962962963
         2         1         2         3         7
         2         2         3         4         7
         2         3         4         7        10
         2         1         3         6         7
         2         3         6         7         9
         2         3         7         9        10
         2         2         2         4         8
         2         2         4         5         8
         2         4         5         8        11
         2         2         4         7         8
         2         4         7         8        10
         2         4         8        10        11
         2         1         2         5         6
         2         1         3         5         6
         2         3         5         6         9
         2         2         5         6         8
         2         5         6         8        11
         2         5         6         9        11
         2         3         3         4        10
         2         3         4         5        10
         2         3         5        10        13
         2         3         3         9        10
         2         3         9        10        12
         2         3        10        12        13
         4         4         5         5        11
         2         4         5        11        14
         2         4         5        10        11
         2         5        10        11        13
         2         5        11        13        14
         2         3         4         5         9
         2         3         3         4         9
         2         3         4         9        12
         2         4         5         9        11
         2         4         9        11        14
         2         4         9        12        14
         2         1         3         5        13
         2         1         2         5        13
         2         1         2         7        13
         2         1         3        12        13
         2         1         6        12        13
         2         1         6         7        13
         2         2         4         5        14
         2         2         2         4        14
         2         2         2         8        14
         2         2         5        13        14
         2         2         7        13        14
         2         2         7         8        14
         2         2         3         4        12
         2         1         2         3        12
         2         1         2         6        12
         2         2         4        12        14
         2         2         8        12        14
         2         2         6         8        12
         2         6         7         9        16
         2         7         9        10        16
         2         9        10        16        18
         2         6         9        15        16
         2         9        15        16        17
         2         9        16        17        18
         2         7         8        10        16
         2         8        10        11        16
         2        10        11        16        19
         2         7        10        16        16
         2        10        16        16        18
         2        10        16        18        19
         2         6         8        11        15
         2         6         9        11        15
         2         9        11        15        17
         2         8        11        15        16
         2        11        15        16        19
         2        11        15        17        19
         2         9        10        12        18
         2        10        12        13        18
         2        12        13        18        19
         2         9        12        17        18
         2        12        17        17        18
         2        12        17        18        19
         2        10        11        13        19
         2        11        13        14        19
         2        13        14        18        19
         2        10        13        18        19
         4        13        18        19        19
         2         9        11        14        17
         2         9        12        14        17
         2        12        14        17        17
         2        11        14        17        19
         2        14        17        18        19
         2        14        17        17        18
         2         6        12        13        19
         2         6         7        13        19
         2         6         7        16        19
         2         6        12        17        19
         2         6        15        17        19
         2         6        15        16        19
         2         7        13        14        18
         2         7         8        14        18
         2         7         8        16        18
         2         7        13        18        19
         2         7        16        18        19
         2         7        16        16        18
         2         8        12        14        17
         2         6         8        12        17
         2         6         8        15        17
         2         8        14        17        18
         2         8        16        17        18
         2         8        15        16        17
