       N       E                     dE             d eps       ncg     rms          rms(c)
DAV:   1     0.380756107760E+04    0.38076E+04   -0.16121E+05 23265   0.181E+03
DAV:   2     0.121159792245E+03   -0.36864E+04   -0.34567E+04 23256   0.392E+02
DAV:   3    -0.375326771305E+03   -0.49649E+03   -0.38793E+03 23256   0.186E+02
DAV:   4    -0.405068756982E+03   -0.29742E+02   -0.28174E+02 24831   0.537E+01
DAV:   5    -0.405481111967E+03   -0.41235E+00   -0.41107E+00 25686   0.636E+00    0.764E+01
RMM:   6    -0.394744028632E+03    0.10737E+02   -0.45264E+02 24230   0.731E+01    0.900E+01
RMM:   7    -0.460616179045E+03   -0.65872E+02   -0.12760E+02 25136   0.335E+01    0.131E+02
RMM:   8    -0.406785259395E+03    0.53831E+02   -0.54501E+01 23635   0.233E+01    0.960E+01
RMM:   9    -0.361420328057E+03    0.45365E+02   -0.33996E+01 23461   0.181E+01    0.412E+01
RMM:  10    -0.382542519870E+03   -0.21122E+02   -0.20238E+01 23929   0.135E+01    0.705E+01
RMM:  11    -0.361529863752E+03    0.21013E+02   -0.12641E+01 23794   0.113E+01    0.343E+01
RMM:  12    -0.357981142696E+03    0.35487E+01   -0.32843E+00 23826   0.535E+00    0.206E+01
RMM:  13    -0.358970579311E+03   -0.98944E+00   -0.16635E+00 24224   0.373E+00    0.218E+01
RMM:  14    -0.357752739333E+03    0.12178E+01   -0.77732E-01 23968   0.270E+00    0.130E+01
RMM:  15    -0.357754948737E+03   -0.22094E-02   -0.21749E-01 24267   0.129E+00    0.114E+01
RMM:  16    -0.358124264600E+03   -0.36932E+00   -0.21084E-01 24192   0.127E+00    0.110E+01
RMM:  17    -0.358524560721E+03   -0.40030E+00   -0.35632E-01 24151   0.170E+00    0.117E+01
RMM:  18    -0.359449546740E+03   -0.92499E+00   -0.81546E-01 23946   0.252E+00    0.161E+01
RMM:  19    -0.358768481475E+03    0.68107E+00   -0.60288E-01 23761   0.231E+00    0.868E+00
RMM:  20    -0.358866046031E+03   -0.97565E-01   -0.38387E-01 23928   0.177E+00    0.886E+00
RMM:  21    -0.358763446001E+03    0.10260E+00   -0.16610E-01 24008   0.124E+00    0.520E+00
RMM:  22    -0.358721389945E+03    0.42056E-01   -0.66199E-02 23962   0.772E-01    0.393E+00
RMM:  23    -0.358789124826E+03   -0.67735E-01   -0.39686E-02 24284   0.554E-01    0.404E+00
RMM:  24    -0.358789472733E+03   -0.34791E-03   -0.27113E-02 23976   0.478E-01    0.346E+00
RMM:  25    -0.358815770758E+03   -0.26298E-01   -0.97465E-03 24161   0.250E-01    0.340E+00
RMM:  26    -0.358829676749E+03   -0.13906E-01   -0.67335E-03 24293   0.229E-01    0.342E+00
RMM:  27    -0.358857422587E+03   -0.27746E-01   -0.64332E-03 24364   0.197E-01    0.344E+00
RMM:  28    -0.358865479659E+03   -0.80571E-02   -0.23696E-03 24517   0.126E-01    0.340E+00
RMM:  29    -0.358867505424E+03   -0.20258E-02   -0.16663E-04 24968   0.231E-02    0.341E+00
RMM:  30    -0.358857424723E+03    0.10081E-01   -0.13984E-03 23948   0.101E-01    0.339E+00
RMM:  31    -0.358809770225E+03    0.47654E-01   -0.26669E-02 23577   0.397E-01    0.306E+00
RMM:  32    -0.358802400732E+03    0.73695E-02   -0.17828E-02 24001   0.345E-01    0.299E+00
RMM:  33    -0.358800389183E+03    0.20115E-02   -0.14081E-02 23787   0.309E-01    0.278E+00
RMM:  34    -0.358811868593E+03   -0.11479E-01   -0.48153E-03 24075   0.182E-01    0.285E+00
RMM:  35    -0.358820355037E+03   -0.84864E-02   -0.15755E-03 24384   0.988E-02    0.282E+00
RMM:  36    -0.358817554528E+03    0.28005E-02   -0.96690E-05 24801   0.299E-02    0.282E+00
RMM:  37    -0.358811007397E+03    0.65471E-02   -0.75558E-04 23874   0.746E-02    0.281E+00
RMM:  38    -0.358811542588E+03   -0.53519E-03   -0.30224E-05 24812   0.131E-02    0.282E+00
RMM:  39    -0.358809046646E+03    0.24959E-02   -0.62357E-03 23852   0.216E-01    0.286E+00
RMM:  40    -0.358781486429E+03    0.27560E-01   -0.65244E-02 23586   0.620E-01    0.221E+00
RMM:  41    -0.358779516387E+03    0.19700E-02   -0.23596E-02 23912   0.402E-01    0.190E+00
RMM:  42    -0.358782991393E+03   -0.34750E-02   -0.78200E-03 23924   0.224E-01    0.133E+00
RMM:  43    -0.358800741763E+03   -0.17750E-01   -0.14544E-02 23778   0.339E-01    0.163E+00
RMM:  44    -0.358797834456E+03    0.29073E-02   -0.15827E-02 23834   0.351E-01    0.687E-01
RMM:  45    -0.358800230961E+03   -0.23965E-02   -0.58089E-03 23982   0.212E-01    0.736E-01
RMM:  46    -0.358798447357E+03    0.17836E-02   -0.30489E-03 23860   0.163E-01    0.425E-01
RMM:  47    -0.358798100473E+03    0.34688E-03   -0.10479E-03 24137   0.913E-02    0.253E-01
RMM:  48    -0.358798127894E+03   -0.27421E-04   -0.54059E-04 24187   0.689E-02    0.233E-01
RMM:  49    -0.358798113436E+03    0.14458E-04   -0.22434E-04 24157   0.454E-02    0.952E-02
RMM:  50    -0.358798087067E+03    0.26368E-04   -0.81376E-05 24266   0.265E-02    0.958E-02
RMM:  51    -0.358797932766E+03    0.15430E-03   -0.46646E-05 24259   0.202E-02    0.449E-02
RMM:  52    -0.358798058940E+03   -0.12617E-03   -0.22916E-05 24090   0.138E-02    0.436E-02
RMM:  53    -0.358798086994E+03   -0.28054E-04   -0.11116E-05 24093   0.967E-03    0.258E-02
RMM:  54    -0.358798040825E+03    0.46170E-04   -0.47997E-06 21238   0.645E-03    0.140E-02
RMM:  55    -0.358798038138E+03    0.26868E-05   -0.19250E-06 15304   0.439E-03    0.143E-02
RMM:  56    -0.358798031822E+03    0.63155E-05   -0.99474E-07 12901   0.346E-03    0.748E-03
RMM:  57    -0.358798051161E+03   -0.19339E-04   -0.69691E-07 12704   0.240E-03    0.961E-03
RMM:  58    -0.358798034189E+03    0.16972E-04   -0.40057E-07 12366   0.226E-03    0.501E-03
RMM:  59    -0.358798027748E+03    0.64408E-05   -0.18873E-07 12249   0.134E-03    0.327E-03
RMM:  60    -0.358798030519E+03   -0.27705E-05   -0.64159E-08 12162   0.892E-04    0.211E-03
RMM:  61    -0.358798030788E+03   -0.26955E-06   -0.34136E-08 11627   0.634E-04
   1 F= -.35879803E+03 E0= -.35879803E+03  d E =0.000000E+00  mag=    91.5524
