 vasp.5.4.4.18Apr17-6-g9f103f2a35 (build Sep 06 2021 19:49:22) complex          
  
 executed on             LinuxIFC date 2022.01.02  19:19:06
 running on   48 total cores
 distrk:  each k-point on   48 cores,    1 groups
 distr:  one band on NCORES_PER_BAND=  16 cores,    3 groups


--------------------------------------------------------------------------------------------------------


 INCAR:
 POTCAR:    PAW_PBE Fe 06Sep2000                  
 POTCAR:    PAW_PBE Ni 02Aug2007                  

 ----------------------------------------------------------------------------- 
|                                                                             |
|           W    W    AA    RRRRR   N    N  II  N    N   GGGG   !!!           |
|           W    W   A  A   R    R  NN   N  II  NN   N  G    G  !!!           |
|           W    W  A    A  R    R  N N  N  II  N N  N  G       !!!           |
|           W WW W  AAAAAA  RRRRR   N  N N  II  N  N N  G  GGG   !            |
|           WW  WW  A    A  R   R   N   NN  II  N   NN  G    G                |
|           W    W  A    A  R    R  N    N  II  N    N   GGGG   !!!           |
|                                                                             |
|      For optimal performance we recommend to set                            |
|        NCORE= 4 - approx SQRT( number of cores)                             |
|      NCORE specifies how many cores store one orbital (NPAR=cpu/NCORE).     |
|      This setting can  greatly improve the performance of VASP for DFT.     |
|      The default,   NCORE=1            might be grossly inefficient         |
|      on modern multi-core architectures or massively parallel machines.     |
|      Do your own testing !!!!                                               |
|      Unfortunately you need to use the default for GW and RPA calculations. |
|      (for HF NCORE is supported but not extensively tested yet)             |
|                                                                             |
 ----------------------------------------------------------------------------- 

 POTCAR:    PAW_PBE Fe 06Sep2000                  
   VRHFIN =Fe:  d7 s1                                                           
   LEXCH  = PE                                                                  
   EATOM  =   594.3153 eV,   43.6809 Ry                                         
                                                                                
   TITEL  = PAW_PBE Fe 06Sep2000                                                
   LULTRA =        F    use ultrasoft PP ?                                      
   IUNSCR =        1    unscreen: 0-lin 1-nonlin 2-no                           
   RPACOR =    2.000    partial core radius                                     
   POMASS =   55.847; ZVAL   =    8.000    mass and valenz                      
   RCORE  =    2.300    outmost cutoff radius                                   
   RWIGS  =    2.460; RWIGS  =    1.302    wigner-seitz radius (au A)           
   ENMAX  =  267.882; ENMIN  =  200.911 eV                                      
   RCLOC  =    1.701    cutoff for local pot                                    
   LCOR   =        T    correct aug charges                                     
   LPAW   =        T    paw PP                                                  
   EAUG   =  511.368                                                            
   DEXC   =    0.000                                                            
   RMAX   =    2.356    core radius for proj-oper                               
   RAUG   =    1.300    factor for augmentation sphere                          
   RDEP   =    2.442    radius for radial grids                                 
   RDEPT  =    1.890    core radius for aug-charge                              
                                                                                
   Atomic configuration                                                         
    9 entries                                                                   
     n  l   j            E        occ.                                          
     1  0  0.50     -6993.8440   2.0000                                         
     2  0  0.50      -814.6047   2.0000                                         
     2  1  1.50      -693.3689   6.0000                                         
     3  0  0.50       -89.4732   2.0000                                         
     3  1  1.50       -55.6373   6.0000                                         
     3  2  2.50        -3.8151   7.0000                                         
     4  0  0.50        -4.2551   1.0000                                         
     4  1  1.50        -3.4015   0.0000                                         
     4  3  2.50        -1.3606   0.0000                                         
   Description                                                                  
     l       E           TYP  RCUT    TYP  RCUT                                 
     2     -3.8151135     23  2.300                                             
     2     -5.1756961     23  2.300                                             
     0     -4.2550963     23  2.300                                             
     0      7.2035603     23  2.300                                             
     1     -2.7211652     23  2.300                                             
     1     18.4316424     23  2.300                                             
  local pseudopotential read in
  partial core-charges read in
  partial kinetic energy density read in
  atomic valenz-charges read in
  non local Contribution for L=           2  read in
    real space projection operators read in
  non local Contribution for L=           2  read in
    real space projection operators read in
  non local Contribution for L=           0  read in
    real space projection operators read in
  non local Contribution for L=           0  read in
    real space projection operators read in
  non local Contribution for L=           1  read in
    real space projection operators read in
  non local Contribution for L=           1  read in
    real space projection operators read in
    PAW grid and wavefunctions read in
 
   number of l-projection  operators is LMAX  =           6
   number of lm-projection operators is LMMAX =          18
 
 POTCAR:    PAW_PBE Ni 02Aug2007                  
   VRHFIN =Ni:                                                                  
   LEXCH  = PE                                                                  
   EATOM  =  1077.6739 eV,   79.2068 Ry                                         
                                                                                
   TITEL  = PAW_PBE Ni 02Aug2007                                                
   LULTRA =        F    use ultrasoft PP ?                                      
   IUNSCR =        1    unscreen: 0-lin 1-nonlin 2-no                           
   RPACOR =    2.000    partial core radius                                     
   POMASS =   58.690; ZVAL   =   10.000    mass and valenz                      
   RCORE  =    2.300    outmost cutoff radius                                   
   RWIGS  =    2.430; RWIGS  =    1.286    wigner-seitz radius (au A)           
   ENMAX  =  269.532; ENMIN  =  202.149 eV                                      
   RCLOC  =    1.201    cutoff for local pot                                    
   LCOR   =        T    correct aug charges                                     
   LPAW   =        T    paw PP                                                  
   EAUG   =  544.565                                                            
   DEXC   =    0.000                                                            
   RMAX   =    2.357    core radius for proj-oper                               
   RAUG   =    1.300    factor for augmentation sphere                          
   RDEP   =    2.390    radius for radial grids                                 
   RDEPT  =    1.838    core radius for aug-charge                              
                                                                                
   Atomic configuration                                                         
    9 entries                                                                   
     n  l   j            E        occ.                                          
     1  0  0.50     -8206.4253   2.0000                                         
     2  0  0.50      -976.1748   2.0000                                         
     2  1  1.50      -839.0571   6.0000                                         
     3  0  0.50      -105.9991   2.0000                                         
     3  1  1.50       -66.4603   6.0000                                         
     3  2  2.50        -4.6458   9.0000                                         
     4  0  0.50        -4.4926   1.0000                                         
     4  1  1.50        -4.0817   0.0000                                         
     4  3  2.50        -1.3606   0.0000                                         
   Description                                                                  
     l       E           TYP  RCUT    TYP  RCUT                                 
     2     -4.6457903     23  2.300                                             
     2     -6.0063729     23  2.300                                             
     0     -4.4925590     23  2.300                                             
     0      5.0102601     23  2.300                                             
     1     -2.7211652     23  2.300                                             
     1     16.5183231     23  2.300                                             
  local pseudopotential read in
  partial core-charges read in
  partial kinetic energy density read in
  atomic valenz-charges read in
  non local Contribution for L=           2  read in
    real space projection operators read in
  non local Contribution for L=           2  read in
    real space projection operators read in
  non local Contribution for L=           0  read in
    real space projection operators read in
  non local Contribution for L=           0  read in
    real space projection operators read in
  non local Contribution for L=           1  read in
    real space projection operators read in
  non local Contribution for L=           1  read in
    real space projection operators read in
    PAW grid and wavefunctions read in
 
   number of l-projection  operators is LMAX  =           6
   number of lm-projection operators is LMMAX =          18
 
 Optimization of the real space projectors (new method)

 maximal supplied QI-value         = 16.25
 optimisation between [QCUT,QGAM] = [ 11.54, 23.24] = [ 37.28,151.24] Ry 
 Optimized for a Real-space Cutoff    1.53 Angstroem

   l    n(q)    QCUT    max X(q) W(low)/X(q) W(high)/X(q)  e(spline) 
   2     10    11.539    80.901    0.11E-03    0.14E-03    0.21E-06
   2     10    11.539    75.754    0.11E-03    0.14E-03    0.22E-06
   0     11    11.539    58.752    0.52E-04    0.18E-04    0.33E-06
   0     11    11.539    30.679    0.44E-04    0.16E-04    0.30E-06
   1     10    11.539    17.977    0.53E-04    0.29E-04    0.13E-06
   1     10    11.539    13.559    0.44E-04    0.25E-04    0.11E-06
 Optimization of the real space projectors (new method)

 maximal supplied QI-value         = 16.25
 optimisation between [QCUT,QGAM] = [ 11.54, 23.24] = [ 37.28,151.24] Ry 
 Optimized for a Real-space Cutoff    1.45 Angstroem

   l    n(q)    QCUT    max X(q) W(low)/X(q) W(high)/X(q)  e(spline) 
   2      9    11.539    60.317    0.19E-03    0.47E-04    0.16E-06
   2      9    11.539    55.921    0.19E-03    0.48E-04    0.16E-06
   0     10    11.539    51.690    0.80E-04    0.50E-04    0.24E-06
   0     10    11.539    30.015    0.73E-04    0.45E-04    0.22E-06
   1     10    11.539    18.849    0.87E-04    0.16E-03    0.71E-07
   1     10    11.539    14.624    0.73E-04    0.13E-03    0.64E-07
  PAW_PBE Fe 06Sep2000                  :
 energy of atom  1       EATOM= -594.3153
 kinetic energy error for atom=    0.0026 (will be added to EATOM!!)
  PAW_PBE Ni 02Aug2007                  :
 energy of atom  2       EATOM=-1077.6739
 kinetic energy error for atom=    0.0030 (will be added to EATOM!!)
 
 
 POSCAR: POSCAR                                  
  positions in direct lattice
  velocities in cartesian coordinates
 exchange correlation table for  LEXCH =        8
   RHO(1)=    0.500       N(1)  =     2000
   RHO(2)=  100.500       N(2)  =     4000
 


--------------------------------------------------------------------------------------------------------


 ion  position               nearest neighbor table
   1  0.001  0.997  0.997-  36 2.46  32 2.48  27 2.50   4 2.50  37 2.52   7 2.53   3 2.53  21 2.54
                            38 2.54  41 2.54   5 2.56  48 2.58
   2  0.500  0.999  0.998-  33 2.50  11 2.50  39 2.51  47 2.52  37 2.52  40 2.52  24 2.54   8 2.54
                             3 2.55   9 2.56  46 2.56  22 2.56
   3  0.750  0.995  0.004-  35 2.48  46 2.51  38 2.51  48 2.51  27 2.52   1 2.53  10 2.53  41 2.54
                             2 2.55  40 2.55  24 2.55  11 2.60
   4  0.248  0.244  0.994-   7 2.49   1 2.50  37 2.50   6 2.51  18 2.52  39 2.54  43 2.54  14 2.54
                            38 2.55  13 2.55   5 2.56  15 2.61
   5  0.080  0.168  0.331-  38 2.48  10 2.49  42 2.49  48 2.49   7 2.51  43 2.52  41 2.53  15 2.54
                             4 2.56   1 2.56  32 2.56   6 2.58
   6  0.334  0.164  0.324-  32 2.50   4 2.51  39 2.51  37 2.52   9 2.53  17 2.53  33 2.54   8 2.55
                             7 2.56   5 2.58  18 2.60  15 2.61
   7  0.165  0.085  0.661-   4 2.49  43 2.51  36 2.51   5 2.51  41 2.52   1 2.53   9 2.53  34 2.54
                            37 2.55  18 2.55  32 2.55   6 2.56
   8  0.590  0.171  0.327-  40 2.46  10 2.49  19 2.51  17 2.51  39 2.52  11 2.53   2 2.54  46 2.54
                             6 2.55  33 2.56   9 2.58  20 2.61
   9  0.416  0.086  0.664-  39 2.50  37 2.50  11 2.51   6 2.53   7 2.53  33 2.54  18 2.56   2 2.56
                            34 2.56  47 2.56  20 2.58   8 2.58
  10  0.833  0.166  0.333-   5 2.49   8 2.49  48 2.50  46 2.50  42 2.50  38 2.51  40 2.51  41 2.52
                            19 2.53   3 2.53  44 2.54  11 2.54
  11  0.664  0.085  0.667-   2 2.50  40 2.51  35 2.51  20 2.51   9 2.51  46 2.52   8 2.53  47 2.53
                            44 2.53  10 2.54  41 2.55   3 2.60
  12  0.992  0.494  0.000-  16 2.46  40 2.47  44 2.49  31 2.49  21 2.51  13 2.52  19 2.52  23 2.52
                            42 2.53  38 2.53  22 2.57  26 2.60
  13  0.241  0.493  0.996-  43 2.49  38 2.49  42 2.51  15 2.52  12 2.52  45 2.53  26 2.55   4 2.55
                            24 2.56  22 2.57  14 2.57  25 2.61
  14  0.498  0.497  0.001-  18 2.50  30 2.51  15 2.53  24 2.53  39 2.54  17 2.54  45 2.54   4 2.54
                            16 2.56  13 2.57  27 2.57  28 2.59
  15  0.330  0.420  0.333-  42 2.49  25 2.50  43 2.51  13 2.52  45 2.52  18 2.52  14 2.53   5 2.54
                            17 2.58  28 2.58   4 2.61   6 2.61
  16  0.751  0.497  0.012-  12 2.46  17 2.50  20 2.50  19 2.52  39 2.52  40 2.52  27 2.53  21 2.53
                            29 2.55  31 2.56  14 2.56  30 2.56
  17  0.583  0.416  0.338-  18 2.50  16 2.50   8 2.51   6 2.53  28 2.53  14 2.54  20 2.56  19 2.57
                            15 2.58  30 2.58  39 2.58  29 2.61
  18  0.416  0.339  0.665-  45 2.49  17 2.50  14 2.50  43 2.51   4 2.52  15 2.52  30 2.54   7 2.55
                             9 2.56  39 2.56  20 2.60   6 2.60
  19  0.838  0.418  0.344-  44 2.46  42 2.48  23 2.49   8 2.51  20 2.51  29 2.52  16 2.52  12 2.52
                            10 2.53  31 2.54  17 2.57  40 2.60
  20  0.673  0.338  0.676-  39 2.48  44 2.49  40 2.49  16 2.50  19 2.51  11 2.51  31 2.53  30 2.54
                            17 2.56   9 2.58  18 2.60   8 2.61
  21  0.001  0.746  0.990-  31 2.38  22 2.45  34 2.48  27 2.50  12 2.51  16 2.53  36 2.53  23 2.53
                            37 2.53   1 2.54  32 2.55  29 2.58
  22  0.244  0.749  0.993-  21 2.45  37 2.49  23 2.51  47 2.52  34 2.52  26 2.54  24 2.55  33 2.55
                             2 2.56  12 2.57  13 2.57  25 2.58
  23  0.083  0.665  0.328-  29 2.45  19 2.49  26 2.49  22 2.51  42 2.52  12 2.52  25 2.53  34 2.53
                            21 2.53  32 2.54  33 2.56  31 2.58
  24  0.495  0.746  0.001-  25 2.48  45 2.50  14 2.53  47 2.53  35 2.53   2 2.54   3 2.55  22 2.55
                            13 2.56  46 2.57  28 2.58  27 2.61
  25  0.336  0.671  0.334-  33 2.46  24 2.48  47 2.50  15 2.50  26 2.51  46 2.51  45 2.53  23 2.53
                            28 2.57  22 2.58  42 2.59  13 2.61
  26  0.164  0.581  0.658-  42 2.49  23 2.49  44 2.50  31 2.51  25 2.51  43 2.52  45 2.52  22 2.54
                            47 2.55  34 2.55  13 2.55  12 2.60
  27  0.755  0.749  0.009-   1 2.50  30 2.50  21 2.50  28 2.51   3 2.52  16 2.53  29 2.53  36 2.54
                            48 2.55  14 2.57  24 2.61  35 2.62
  28  0.590  0.670  0.340-  48 2.50  27 2.51  35 2.52  30 2.52  46 2.53  17 2.53  45 2.55  29 2.56
                            25 2.57  15 2.58  24 2.58  14 2.59
  29  0.844  0.671  0.343-  23 2.45  31 2.48  32 2.48  36 2.50  19 2.52  27 2.53  16 2.55  28 2.56
                            30 2.57  48 2.57  21 2.58  17 2.61
  30  0.669  0.587  0.676-  27 2.50  14 2.51  36 2.51  28 2.52  31 2.53  20 2.54  18 2.54  35 2.55
                            45 2.56  16 2.56  29 2.57  17 2.58
  31  0.920  0.590  0.676-  21 2.38  34 2.45  29 2.48  12 2.49  26 2.51  20 2.53  30 2.53  36 2.54
                            19 2.54  16 2.56  44 2.57  23 2.58
  32  0.086  0.918  0.324-  29 2.48   1 2.48   6 2.50  37 2.51  34 2.52  23 2.54   7 2.55  21 2.55
                            48 2.56   5 2.56  33 2.57  36 2.61
  33  0.339  0.915  0.331-  25 2.46  46 2.49   2 2.50  47 2.50   9 2.54   6 2.54  22 2.55   8 2.56
                            23 2.56  34 2.56  32 2.57  37 2.58
  34  0.162  0.833  0.660-  31 2.45  21 2.48  37 2.51  32 2.52  36 2.52  22 2.52  23 2.53   7 2.54
                            26 2.55   9 2.56  33 2.56  47 2.58
  35  0.665  0.837  0.670-   3 2.48  47 2.49  46 2.49  11 2.51  28 2.52  48 2.53  24 2.53  36 2.53
                            45 2.55  30 2.55  41 2.55  27 2.62
  36  0.915  0.838  0.668-   1 2.46  48 2.48  29 2.50   7 2.51  30 2.51  34 2.52  41 2.52  35 2.53
                            21 2.53  27 2.54  31 2.54  32 2.61
  37  0.250  0.998  0.992-  22 2.49   9 2.50   4 2.50  32 2.51  34 2.51   1 2.52   2 2.52   6 2.52
                            39 2.53  21 2.53   7 2.55  33 2.58
  38  0.996  0.245  0.001-  41 2.46   5 2.48  13 2.49  40 2.50  10 2.51   3 2.51  42 2.53  12 2.53
                             1 2.54  44 2.54   4 2.55  43 2.56
  39  0.501  0.248  0.995-  20 2.48   9 2.50   6 2.51   2 2.51   8 2.52  16 2.52  40 2.53  37 2.53
                            14 2.54   4 2.54  18 2.56  17 2.58
  40  0.750  0.247  0.000-   8 2.46  12 2.47  20 2.49  38 2.50  11 2.51  10 2.51   2 2.52  44 2.52
                            16 2.52  39 2.53   3 2.55  19 2.60
  41  0.918  0.089  0.670-  38 2.46  44 2.48  43 2.48   7 2.52  48 2.52  10 2.52  36 2.52   5 2.53
                             3 2.54   1 2.54  11 2.55  35 2.55
  42  0.081  0.414  0.332-  19 2.48  26 2.49   5 2.49  15 2.49  10 2.50  13 2.51  43 2.51  23 2.52
                            44 2.53  12 2.53  38 2.53  25 2.59
  43  0.165  0.333  0.664-  41 2.48  13 2.49   7 2.51  18 2.51  15 2.51  42 2.51   5 2.52  26 2.52
                            44 2.52  45 2.53   4 2.54  38 2.56
  44  0.916  0.334  0.668-  19 2.46  41 2.48  20 2.49  12 2.49  26 2.50  43 2.52  40 2.52  42 2.53
                            11 2.53  10 2.54  38 2.54  31 2.57
  45  0.414  0.583  0.668-  18 2.49  24 2.50  47 2.51  15 2.52  26 2.52  43 2.53  25 2.53  13 2.53
                            14 2.54  28 2.55  35 2.55  30 2.56
  46  0.586  0.918  0.337-  33 2.49  35 2.49  48 2.50  10 2.50   3 2.51  25 2.51  11 2.52  47 2.53
                            28 2.53   8 2.54   2 2.56  24 2.57
  47  0.416  0.833  0.666-  35 2.49  25 2.50  33 2.50  45 2.51   2 2.52  22 2.52  46 2.53  11 2.53
                            24 2.53  26 2.55   9 2.56  34 2.58
  48  0.835  0.920  0.341-  36 2.48   5 2.49  10 2.50  46 2.50  28 2.50   3 2.51  41 2.52  35 2.53
                            27 2.55  32 2.56  29 2.57   1 2.58
 

IMPORTANT INFORMATION: All symmetrisations will be switched off!
NOSYMM: (Re-)initialisation of all symmetry stuff for point group C_1.

 
 

Automatic generation of k-mesh.
 generate k-points for:    3    3    4
Space group operators:
 irot       det(A)        alpha          n_x          n_y          n_z        tau_x        tau_y        tau_z
    1     1.000000     0.000001     1.000000     0.000000     0.000000     0.000000     0.000000     0.000000
 
 Subroutine IBZKPT returns following result:
 ===========================================
 
 Found     19 irreducible k-points:
 
 Following reciprocal coordinates:
            Coordinates               Weight
  0.000000  0.000000  0.000000      1.000000
  0.333333  0.000000  0.000000      2.000000
  0.000000  0.333333  0.000000      2.000000
  0.333333  0.333333  0.000000      2.000000
 -0.333333  0.333333  0.000000      2.000000
  0.000000  0.000000  0.250000      2.000000
  0.333333  0.000000  0.250000      2.000000
 -0.333333  0.000000  0.250000      2.000000
  0.000000  0.333333  0.250000      2.000000
  0.333333  0.333333  0.250000      2.000000
 -0.333333  0.333333  0.250000      2.000000
  0.000000 -0.333333  0.250000      2.000000
  0.333333 -0.333333  0.250000      2.000000
 -0.333333 -0.333333  0.250000      2.000000
  0.000000  0.000000  0.500000      1.000000
  0.333333  0.000000  0.500000      2.000000
  0.000000  0.333333  0.500000      2.000000
  0.333333  0.333333  0.500000      2.000000
 -0.333333  0.333333  0.500000      2.000000
 
 Following cartesian coordinates:
            Coordinates               Weight
  0.000000  0.000000 -0.000000      1.000000
  0.111111 -0.055556 -0.055556      2.000000
  0.055556  0.055556 -0.111111      2.000000
  0.166667  0.000000 -0.166667      2.000000
 -0.055556  0.111111 -0.055556      2.000000
  0.083333  0.083333  0.083333      2.000000
  0.194444  0.027778  0.027778      2.000000
 -0.027778  0.138889  0.138889      2.000000
  0.138889  0.138889 -0.027778      2.000000
  0.250000  0.083333 -0.083333      2.000000
  0.027778  0.194444  0.027778      2.000000
  0.027778  0.027778  0.194444      2.000000
  0.138889 -0.027778  0.138889      2.000000
 -0.083333  0.083333  0.250000      2.000000
  0.166667  0.166667  0.166667      1.000000
  0.277778  0.111111  0.111111      2.000000
  0.222222  0.222222  0.055556      2.000000
  0.333333  0.166667 -0.000000      2.000000
  0.111111  0.277778  0.111111      2.000000
 
 TETIRR: Found    106 inequivalent tetrahedra from      216


--------------------------------------------------------------------------------------------------------




 Dimension of arrays:
   k-points           NKPTS =     19   k-points in BZ     NKDIM =     19   number of bands    NBANDS=    306
   number of dos      NEDOS =    301   number of ions     NIONS =     48
   non local maximal  LDIM  =      6   non local SUM 2l+1 LMDIM =     18
   total plane-waves  NPLWV = 307200
   max r-space proj   IRMAX =   8518   max aug-charges    IRDMAX=  20156
   dimension x,y,z NGX =    80 NGY =   80 NGZ =   48
   dimension x,y,z NGXF=   160 NGYF=  160 NGZF=   96
   support grid    NGXF=   160 NGYF=  160 NGZF=   96
   ions per type =              36  12
   NGX,Y,Z   is equivalent  to a cutoff of  13.15, 13.15, 12.89 a.u.
   NGXF,Y,Z  is equivalent  to a cutoff of  26.31, 26.31, 25.77 a.u.

 SYSTEM =  SQS-NiFe                                
 POSCAR =  POSCAR                                  

 Startparameter for this run:
   NWRITE =      2    write-flag & timer
   PREC   = accura    normal or accurate (medium, high low for compatibility)
   ISTART =      0    job   : 0-new  1-cont  2-samecut
   ICHARG =      2    charge: 1-file 2-atom 10-const
   ISPIN  =      2    spin polarized calculation?
   LNONCOLLINEAR =      F non collinear calculations
   LSORBIT =      F    spin-orbit coupling
   INIWAV =      1    electr: 0-lowe 1-rand  2-diag
   LASPH  =      F    aspherical Exc in radial PAW
   METAGGA=      F    non-selfconsistent MetaGGA calc.

 Electronic Relaxation 1
   ENCUT  =  520.0 eV  38.22 Ry    6.18 a.u.  18.80 18.80 11.51*2*pi/ulx,y,z
   ENINI  =  520.0     initial cutoff
   ENAUG  =  544.6 eV  augmentation charge cutoff
   NELM   =    200;   NELMIN=  2; NELMDL= -5     # of ELM steps 
   EDIFF  = 0.1E-05   stopping-criterion for ELM
   LREAL  =      T    real-space projection
   NLSPLINE    = F    spline interpolate recip. space projectors
   LCOMPAT=      F    compatible to vasp.4.4
   GGA_COMPAT  = T    GGA compatible to vasp.4.4-vasp.4.6
   LMAXPAW     = -100 max onsite density
   LMAXMIX     =    2 max onsite mixed and CHGCAR
   VOSKOWN=      0    Vosko Wilk Nusair interpolation
   ROPT   =   -0.00025  -0.00025
 Ionic relaxation
   EDIFFG = -.2E-01   stopping-criterion for IOM
   NSW    =      0    number of steps for IOM
   NBLOCK =      1;   KBLOCK =      1    inner block; outer block 
   IBRION =     -1    ionic relax: 0-MD 1-quasi-New 2-CG
   NFREE  =      0    steps in history (QN), initial steepest desc. (CG)
   ISIF   =      2    stress and relaxation
   IWAVPR =     10    prediction:  0-non 1-charg 2-wave 3-comb
   ISYM   =      0    0-nonsym 1-usesym 2-fastsym
   LCORR  =      T    Harris-Foulkes like correction to forces

   POTIM  = 0.5000    time-step for ionic-motion
   TEIN   =    0.0    initial temperature
   TEBEG  =    0.0;   TEEND  =   0.0 temperature during run
   SMASS  =  -3.00    Nose mass-parameter (am)
   estimated Nose-frequenzy (Omega)   =  0.10E-29 period in steps =****** mass=  -0.234E-26a.u.
   SCALEE = 1.0000    scale energy and forces
   NPACO  =    256;   APACO  = 16.0  distance and # of slots for P.C.
   PSTRESS=    0.0 pullay stress

  Mass of Ions in am
   POMASS =  55.85 58.69
  Ionic Valenz
   ZVAL   =   8.00 10.00
  Atomic Wigner-Seitz radii
   RWIGS  =  -1.00 -1.00
  virtual crystal weights 
   VCA    =   1.00  1.00
   NELECT =     408.0000    total number of electrons
   NUPDOWN=      -1.0000    fix difference up-down

 DOS related values:
   EMIN   =  10.00;   EMAX   =-10.00  energy-range for DOS
   EFERMI =   0.00
   ISMEAR =    -5;   SIGMA  =   0.20  broadening in eV -4-tet -1-fermi 0-gaus

 Electronic relaxation 2 (details)
   IALGO  =     68    algorithm
   LDIAG  =      T    sub-space diagonalisation (order eigenvalues)
   LSUBROT=      F    optimize rotation matrix (better conditioning)
   TURBO    =      0    0=normal 1=particle mesh
   IRESTART =      0    0=no restart 2=restart with 2 vectors
   NREBOOT  =      0    no. of reboots
   NMIN     =      0    reboot dimension
   EREF     =   0.00    reference energy to select bands
   IMIX   =      4    mixing-type and parameters
     AMIX     =   0.40;   BMIX     =  1.00
     AMIX_MAG =   1.60;   BMIX_MAG =  1.00
     AMIN     =   0.10
     WC   =   100.;   INIMIX=   1;  MIXPRE=   1;  MAXMIX= -45

 Intra band minimization:
   WEIMIN = 0.0000     energy-eigenvalue tresh-hold
   EBREAK =  0.82E-09  absolut break condition
   DEPER  =   0.30     relativ break condition  

   TIME   =   0.40     timestep for ELM

  volume/ion in A,a.u.               =      11.42        77.08
  Fermi-wavevector in a.u.,A,eV,Ry     =   1.483514  2.803436 29.943904  2.200815
  Thomas-Fermi vector in A             =   2.597166
 
 Write flags
   LWAVE        =      F    write WAVECAR
   LDOWNSAMPLE  =      F    k-point downsampling of WAVECAR
   LCHARG       =      T    write CHGCAR
   LVTOT        =      F    write LOCPOT, total local potential
   LVHAR        =      F    write LOCPOT, Hartree potential only
   LELF         =      F    write electronic localiz. function (ELF)
   LORBIT       =     11    0 simple, 1 ext, 2 COOP (PROOUT), +10 PAW based schemes


 Dipole corrections
   LMONO  =      F    monopole corrections only (constant potential shift)
   LDIPOL =      F    correct potential (dipole corrections)
   IDIPOL =      0    1-x, 2-y, 3-z, 4-all directions 
   EPSILON=  1.0000000 bulk dielectric constant

 Exchange correlation treatment:
   GGA     =    --    GGA type
   LEXCH   =     8    internal setting for exchange type
   VOSKOWN=      0    Vosko Wilk Nusair interpolation
   LHFCALC =     F    Hartree Fock is set to
   LHFONE  =     F    Hartree Fock one center treatment
   AEXX    =    0.0000 exact exchange contribution

 Linear response parameters
   LEPSILON=     F    determine dielectric tensor
   LRPA    =     F    only Hartree local field effects (RPA)
   LNABLA  =     F    use nabla operator in PAW spheres
   LVEL    =     F    velocity operator in full k-point grid
   LINTERFAST=   F  fast interpolation
   KINTER  =     0    interpolate to denser k-point grid
   CSHIFT  =0.1000    complex shift for real part using Kramers Kronig
   OMEGAMAX=  -1.0    maximum frequency
   DEG_THRESHOLD= 0.2000000E-02 threshold for treating states as degnerate
   RTIME   =   -0.100 relaxation time in fs
  (WPLASMAI=    0.000 imaginary part of plasma frequency in eV, 0.658/RTIME)
   DFIELD  = 0.0000000 0.0000000 0.0000000 field for delta impulse in time
 
 Orbital magnetization related:
   ORBITALMAG=     F  switch on orbital magnetization
   LCHIMAG   =     F  perturbation theory with respect to B field
   DQ        =  0.001000  dq finite difference perturbation B field
   LLRAUG    =     F  two centre corrections for induced B field



--------------------------------------------------------------------------------------------------------


 Static calculation
 charge density and potential will be updated during run
 spin polarized calculation
 RMM-DIIS sequential band-by-band and
  variant of blocked Davidson during initial phase
 perform sub-space diagonalisation
    before iterative eigenvector-optimisation
 modified Broyden-mixing scheme, WC =      100.0
 initial mixing is a Kerker type mixing with AMIX =  0.4000 and BMIX =      1.0000
 Hartree-type preconditioning will be used
 using additional bands          102
 real space projection scheme for non local part
 use partial core corrections
 calculate Harris-corrections to forces 
   (improved forces if not selfconsistent)
 use gradient corrections 
 use of overlap-Matrix (Vanderbilt PP)
 Fermi weights with tetrahedron method with Bloechl corrections


--------------------------------------------------------------------------------------------------------


  energy-cutoff  :      520.00
  volume of cell :      548.29
      direct lattice vectors                 reciprocal lattice vectors
     7.150000000 -7.150000000  0.000000000     0.093240093 -0.046620047 -0.046620047
     0.000000000  7.150000000 -7.150000000     0.046620047  0.046620047 -0.093240093
     3.575000000  3.575000000  3.575000000     0.093240093  0.093240093  0.093240093

  length of vectors
    10.111626971 10.111626971  6.192081637     0.114195326  0.114195326  0.161496579


 
 k-points in units of 2pi/SCALE and weight: read from INCAR                         
   0.00000000  0.00000000 -0.00000000       0.028
   0.11111111 -0.05555556 -0.05555556       0.056
   0.05555556  0.05555556 -0.11111111       0.056
   0.16666667  0.00000000 -0.16666667       0.056
  -0.05555556  0.11111111 -0.05555556       0.056
   0.08333333  0.08333333  0.08333333       0.056
   0.19444444  0.02777778  0.02777778       0.056
  -0.02777778  0.13888889  0.13888889       0.056
   0.13888889  0.13888889 -0.02777778       0.056
   0.25000000  0.08333333 -0.08333333       0.056
   0.02777778  0.19444444  0.02777778       0.056
   0.02777778  0.02777778  0.19444444       0.056
   0.13888889 -0.02777778  0.13888889       0.056
  -0.08333333  0.08333333  0.25000000       0.056
   0.16666667  0.16666667  0.16666667       0.028
   0.27777778  0.11111111  0.11111111       0.056
   0.22222222  0.22222222  0.05555556       0.056
   0.33333333  0.16666667 -0.00000000       0.056
   0.11111111  0.27777778  0.11111111       0.056
 
 k-points in reciprocal lattice and weights: read from INCAR                         
   0.00000000  0.00000000  0.00000000       0.028
   0.33333333  0.00000000  0.00000000       0.056
   0.00000000  0.33333333  0.00000000       0.056
   0.33333333  0.33333333  0.00000000       0.056
  -0.33333333  0.33333333  0.00000000       0.056
   0.00000000  0.00000000  0.25000000       0.056
   0.33333333  0.00000000  0.25000000       0.056
  -0.33333333  0.00000000  0.25000000       0.056
   0.00000000  0.33333333  0.25000000       0.056
   0.33333333  0.33333333  0.25000000       0.056
  -0.33333333  0.33333333  0.25000000       0.056
   0.00000000 -0.33333333  0.25000000       0.056
   0.33333333 -0.33333333  0.25000000       0.056
  -0.33333333 -0.33333333  0.25000000       0.056
   0.00000000  0.00000000  0.50000000       0.028
   0.33333333  0.00000000  0.50000000       0.056
   0.00000000  0.33333333  0.50000000       0.056
   0.33333333  0.33333333  0.50000000       0.056
  -0.33333333  0.33333333  0.50000000       0.056
 
 position of ions in fractional coordinates (direct lattice) 
   0.00097296  0.99655494  0.99683677
   0.50017285  0.99897494  0.99777747
   0.74986045  0.99500153  0.00381461
   0.24807617  0.24401975  0.99387951
   0.08021590  0.16778852  0.33129701
   0.33388435  0.16431674  0.32438362
   0.16484373  0.08519595  0.66135872
   0.58979005  0.17105250  0.32730500
   0.41554765  0.08570555  0.66351962
   0.83344040  0.16624240  0.33344671
   0.66391819  0.08530033  0.66680559
   0.99218702  0.49367044  0.00021167
   0.24140787  0.49317872  0.99631271
   0.49790271  0.49720158  0.00080615
   0.33009896  0.42033008  0.33259403
   0.75050802  0.49690390  0.01159470
   0.58252974  0.41586999  0.33773167
   0.41582499  0.33861426  0.66452290
   0.83790933  0.41837985  0.34433695
   0.67266701  0.33791988  0.67581651
   0.00084171  0.74579377  0.99035693
   0.24444197  0.74887082  0.99308398
   0.08312044  0.66461109  0.32811727
   0.49508369  0.74573769  0.00115130
   0.33630361  0.67087361  0.33362137
   0.16357104  0.58128905  0.65766406
   0.75522684  0.74894067  0.00892825
   0.59002651  0.66999623  0.34016277
   0.84383673  0.67051590  0.34297856
   0.66924571  0.58743458  0.67647253
   0.92020678  0.58981289  0.67588583
   0.08624960  0.91776965  0.32365347
   0.33911061  0.91532353  0.33100260
   0.16178261  0.83271041  0.66048336
   0.66455361  0.83739942  0.67025466
   0.91543532  0.83841864  0.66804015
   0.25037806  0.99756732  0.99200367
   0.99647468  0.24515337  0.00100602
   0.50085520  0.24786795  0.99489461
   0.75024686  0.24723601  0.00031445
   0.91778521  0.08890886  0.67014888
   0.08076263  0.41436892  0.33241388
   0.16502292  0.33304699  0.66369182
   0.91635282  0.33378025  0.66751298
   0.41399907  0.58347506  0.66809828
   0.58626670  0.91812650  0.33660369
   0.41637057  0.83259081  0.66621067
   0.83469015  0.92015815  0.34089205
 
 position of ions in cartesian coordinates  (Angst):
   3.57064815 10.68210257 -3.56167636
   7.14329031  7.13348945 -3.57561637
   5.37513943  1.76639597 -7.10062366
   5.32686384  3.52411585  1.80837802
   1.75793047  1.81053108 -0.01530112
   3.54694453 -0.05273700 -0.01519322
   3.54299011  1.79487571  1.75520640
   5.38711424 -1.82385810 -0.05291001
   5.34324831  0.01371168  1.75928794
   7.15117090 -3.57839373  0.00343884
   7.13084504 -1.75328766  1.77393260
   7.09489392 -3.56363690 -3.52898690
   5.28788419  5.36197953  0.03559013
   3.56288638 -0.00213105 -3.55210932
   3.54923126  1.83417617 -1.81633643
   5.40758342 -1.77181839 -3.51141185
   5.37247834  0.01577356 -1.76607973
   5.34881802  1.82361266 -0.04542258
   7.22205631 -1.76863119 -1.76041135
   7.22561315  0.02260203 -0.00008313
   3.54654426  8.86693329 -1.79189945
   5.29803534  7.15694145 -1.80415113
   1.76733039  5.33067736 -3.57895005
   3.54396430  1.79629197 -5.32790857
   3.59726723  3.58487185 -3.60404990
   3.52068196  5.33783274 -1.80506769
   5.43179039 -0.01302758 -5.32300732
   5.43477143  1.78786548 -3.57439116
   7.25958093 -0.01309560 -3.56804031
   7.20349613  1.83343965 -1.78176793
   8.99577029  0.05397554 -1.80087035
   1.77374575  7.10242954 -5.40499186
   3.60797515  5.30325668 -5.36122897
   3.51797366  7.15836182 -3.59265145
   7.14771875  3.63200793 -3.59124547
   8.93360610  1.83757426 -3.60644973
   5.33661627  8.88881634 -3.58619321
   7.12839045 -5.36835081 -1.74925010
   7.13786290  1.74788938  1.78449242
   5.36538922 -3.59540344 -1.76661327
   8.95794651 -3.53068368  1.76008387
   1.76583240  3.57366463 -1.77435820
   3.55261213  3.57407035 -0.00858770
   8.93828161 -1.77903497 -0.00016989
   5.34854466  3.60020469 -1.78339533
   5.39516510  3.57615573 -5.36124628
   5.35875270  5.35767789 -3.57132119
   7.18672366  1.82978525 -5.36044167
 


--------------------------------------------------------------------------------------------------------


 k-point  1 :   0.0000 0.0000 0.0000  plane waves:   14789
 k-point  2 :   0.3333 0.0000 0.0000  plane waves:   14764
 k-point  3 :   0.0000 0.3333 0.0000  plane waves:   14764
 k-point  4 :   0.3333 0.3333 0.0000  plane waves:   14805
 k-point  5 :  -0.3333 0.3333 0.0000  plane waves:   14764
 k-point  6 :   0.0000 0.0000 0.2500  plane waves:   14729
 k-point  7 :   0.3333 0.0000 0.2500  plane waves:   14755
 k-point  8 :  -0.3333 0.0000 0.2500  plane waves:   14755
 k-point  9 :   0.0000 0.3333 0.2500  plane waves:   14755
 k-point 10 :   0.3333 0.3333 0.2500  plane waves:   14763
 k-point 11 :  -0.3333 0.3333 0.2500  plane waves:   14755
 k-point 12 :   0.0000-0.3333 0.2500  plane waves:   14755
 k-point 13 :   0.3333-0.3333 0.2500  plane waves:   14755
 k-point 14 :  -0.3333-0.3333 0.2500  plane waves:   14763
 k-point 15 :   0.0000 0.0000 0.5000  plane waves:   14748
 k-point 16 :   0.3333 0.0000 0.5000  plane waves:   14722
 k-point 17 :   0.0000 0.3333 0.5000  plane waves:   14722
 k-point 18 :   0.3333 0.3333 0.5000  plane waves:   14736
 k-point 19 :  -0.3333 0.3333 0.5000  plane waves:   14722

 maximum and minimum number of plane-waves per node :       954      893

 maximum number of plane-waves:     14805
 maximum index in each direction: 
   IXMAX=   19   IYMAX=   19   IZMAX=   11
   IXMIN=  -19   IYMIN=  -19   IZMIN=  -12


 real space projection operators:
  total allocation   :      53222.62 KBytes
  max/ min on nodes  :       3334.50       3315.94


 parallel 3D FFT for wavefunctions:
    minimum data exchange during FFTs selected (reduces bandwidth)
 parallel 3D FFT for charge:
    minimum data exchange during FFTs selected (reduces bandwidth)


 total amount of memory used by VASP MPI-rank0   110752. kBytes
=======================================================================

   base      :      30000. kBytes
   nonlr-proj:      11049. kBytes
   fftplans  :       2600. kBytes
   grid      :       6545. kBytes
   one-center:         93. kBytes
   wavefun   :      60465. kBytes
 
     INWAV:  cpu time    0.0000: real time    0.0001
 Broyden mixing: mesh for mixing (old mesh)
   NGX = 37   NGY = 37   NGZ = 23
  (NGX  =160   NGY  =160   NGZ  = 96)
  gives a total of  31487 points

 initial charge density was supplied:
 charge density of overlapping atoms calculated
 number of electron     408.0000000 magnetization     120.0000000
 keeping initial charge density in first step


--------------------------------------------------------------------------------------------------------


 Maximum index for non-local projection operator          591
 Maximum index for augmentation-charges         1174 (set IRDMAX)


--------------------------------------------------------------------------------------------------------


 First call to EWALD:  gamma=   0.217
 Maximum number of real-space cells 3x 3x 3
 Maximum number of reciprocal cells 3x 3x 2

    FEWALD:  cpu time    0.0030: real time    0.0021


--------------------------------------- Iteration      1(   1)  ---------------------------------------


    POTLOK:  cpu time    0.0900: real time    0.0934
    SETDIJ:  cpu time    0.0150: real time    0.0155
     EDDAV:  cpu time   33.3739: real time   33.4854
 BZINTS: Fermi energy: 22.707580;408.000000 electrons
         Band energy:6651.881275;  BLOECHL correction: -0.028114
       DOS:  cpu time    0.1560: real time    0.1590
    --------------------------------------------
      LOOP:  cpu time   33.6359: real time   33.7533

 eigenvalue-minimisations  : 23265
 total energy-change (2. order) : 0.3807561E+04  (-0.1612089E+05)
 number of electron     408.0000000 magnetization     120.0000000
 augmentation part      408.0000000 magnetization     120.0000000

 Free energy of the ion-electron system (eV)
  ---------------------------------------------------
  alpha Z        PSCENC =      2769.74827871
  Ewald energy   TEWEN  =    -32030.89420778
  -Hartree energ DENC   =     -7391.70679256
  -exchange      EXHF   =         0.00000000
  -V(xc)+E(xc)   XCENC  =       561.41217920
  PAW double counting   =     31489.33169000   -32569.51888320
  entropy T*S    EENTRO =         0.00000000
  eigenvalues    EBANDS =      6651.88127508
  atomic energy  EATOM  =     34327.30753815
  Solvation  Ediel_sol  =         0.00000000
  ---------------------------------------------------
  free energy    TOTEN  =      3807.56107760 eV

  energy without entropy =     3807.56107760  energy(sigma->0) =     3807.56107760


--------------------------------------------------------------------------------------------------------




--------------------------------------- Iteration      1(   2)  ---------------------------------------


     EDDAV:  cpu time   33.7579: real time   34.1176
 BZINTS: Fermi energy: 10.867060;408.000000 electrons
         Band energy:2965.479990;  BLOECHL correction: -0.015077
       DOS:  cpu time    0.1580: real time    0.1597
    --------------------------------------------
      LOOP:  cpu time   33.9148: real time   34.2773

 eigenvalue-minimisations  : 23256
 total energy-change (2. order) :-0.3686401E+04  (-0.3456706E+04)
 number of electron     408.0000000 magnetization     120.0000000
 augmentation part      408.0000000 magnetization     120.0000000

 Free energy of the ion-electron system (eV)
  ---------------------------------------------------
  alpha Z        PSCENC =      2769.74827871
  Ewald energy   TEWEN  =    -32030.89420778
  -Hartree energ DENC   =     -7391.70679256
  -exchange      EXHF   =         0.00000000
  -V(xc)+E(xc)   XCENC  =       561.41217920
  PAW double counting   =     31489.33169000   -32569.51888320
  entropy T*S    EENTRO =         0.00000000
  eigenvalues    EBANDS =      2965.47998973
  atomic energy  EATOM  =     34327.30753815
  Solvation  Ediel_sol  =         0.00000000
  ---------------------------------------------------
  free energy    TOTEN  =       121.15979224 eV

  energy without entropy =      121.15979224  energy(sigma->0) =      121.15979224


--------------------------------------------------------------------------------------------------------




--------------------------------------- Iteration      1(   3)  ---------------------------------------


     EDDAV:  cpu time   34.9087: real time   35.2204
 BZINTS: Fermi energy:  8.903398;408.000000 electrons
         Band energy:2468.993426;  BLOECHL correction: -0.039231
       DOS:  cpu time    0.1500: real time    0.1509
    --------------------------------------------
      LOOP:  cpu time   35.0587: real time   35.3713

 eigenvalue-minimisations  : 23256
 total energy-change (2. order) :-0.4964866E+03  (-0.3879303E+03)
 number of electron     408.0000000 magnetization     120.0000000
 augmentation part      408.0000000 magnetization     120.0000000

 Free energy of the ion-electron system (eV)
  ---------------------------------------------------
  alpha Z        PSCENC =      2769.74827871
  Ewald energy   TEWEN  =    -32030.89420778
  -Hartree energ DENC   =     -7391.70679256
  -exchange      EXHF   =         0.00000000
  -V(xc)+E(xc)   XCENC  =       561.41217920
  PAW double counting   =     31489.33169000   -32569.51888320
  entropy T*S    EENTRO =         0.00000000
  eigenvalues    EBANDS =      2468.99342618
  atomic energy  EATOM  =     34327.30753815
  Solvation  Ediel_sol  =         0.00000000
  ---------------------------------------------------
  free energy    TOTEN  =      -375.32677131 eV

  energy without entropy =     -375.32677131  energy(sigma->0) =     -375.32677131


--------------------------------------------------------------------------------------------------------




--------------------------------------- Iteration      1(   4)  ---------------------------------------


     EDDAV:  cpu time   36.9384: real time   37.2629
 BZINTS: Fermi energy:  8.818140;408.000000 electrons
         Band energy:2439.251440;  BLOECHL correction: -0.040411
       DOS:  cpu time    0.1490: real time    0.1499
    --------------------------------------------
      LOOP:  cpu time   37.0874: real time   37.4129

 eigenvalue-minimisations  : 24831
 total energy-change (2. order) :-0.2974199E+02  (-0.2817450E+02)
 number of electron     408.0000000 magnetization     120.0000000
 augmentation part      408.0000000 magnetization     120.0000000

 Free energy of the ion-electron system (eV)
  ---------------------------------------------------
  alpha Z        PSCENC =      2769.74827871
  Ewald energy   TEWEN  =    -32030.89420778
  -Hartree energ DENC   =     -7391.70679256
  -exchange      EXHF   =         0.00000000
  -V(xc)+E(xc)   XCENC  =       561.41217920
  PAW double counting   =     31489.33169000   -32569.51888320
  entropy T*S    EENTRO =         0.00000000
  eigenvalues    EBANDS =      2439.25144050
  atomic energy  EATOM  =     34327.30753815
  Solvation  Ediel_sol  =         0.00000000
  ---------------------------------------------------
  free energy    TOTEN  =      -405.06875698 eV

  energy without entropy =     -405.06875698  energy(sigma->0) =     -405.06875698


--------------------------------------------------------------------------------------------------------




--------------------------------------- Iteration      1(   5)  ---------------------------------------


     EDDAV:  cpu time   37.7353: real time   38.0216
 BZINTS: Fermi energy:  8.816819;408.000000 electrons
         Band energy:2438.839086;  BLOECHL correction: -0.040446
       DOS:  cpu time    0.1230: real time    0.1230
    CHARGE:  cpu time    0.7189: real time    0.7224
    MIXING:  cpu time    0.0030: real time    0.0022
    --------------------------------------------
      LOOP:  cpu time   38.5801: real time   38.8692

 eigenvalue-minimisations  : 25686
 total energy-change (2. order) :-0.4123550E+00  (-0.4110655E+00)
 number of electron     408.0000017 magnetization     101.4050265
 augmentation part      196.8201648 magnetization      77.9619781

 Broyden mixing:
  rms(total) = 0.76402E+01    rms(broyden)= 0.76401E+01
  rms(prec ) = 0.93151E+01
  weight for this iteration     100.00

 Free energy of the ion-electron system (eV)
  ---------------------------------------------------
  alpha Z        PSCENC =      2769.74827871
  Ewald energy   TEWEN  =    -32030.89420778
  -Hartree energ DENC   =     -7391.70679256
  -exchange      EXHF   =         0.00000000
  -V(xc)+E(xc)   XCENC  =       561.41217920
  PAW double counting   =     31489.33169000   -32569.51888320
  entropy T*S    EENTRO =         0.00000000
  eigenvalues    EBANDS =      2438.83908551
  atomic energy  EATOM  =     34327.30753815
  Solvation  Ediel_sol  =         0.00000000
  ---------------------------------------------------
  free energy    TOTEN  =      -405.48111197 eV

  energy without entropy =     -405.48111197  energy(sigma->0) =     -405.48111197


--------------------------------------------------------------------------------------------------------




--------------------------------------- Iteration      1(   6)  ---------------------------------------


    POTLOK:  cpu time    0.0880: real time    0.0891
    SETDIJ:  cpu time    0.0160: real time    0.0163
    EDDIAG:  cpu time    5.3962: real time    5.4309
  RMM-DIIS:  cpu time   20.7199: real time   20.9670
    ORTHCH:  cpu time    0.8479: real time    0.8570
 BZINTS: Fermi energy:  6.153636;408.000000 electrons
         Band energy:1438.659184;  BLOECHL correction: -0.019020
       DOS:  cpu time    0.1520: real time    0.1517
    CHARGE:  cpu time    0.7309: real time    0.7354
    MIXING:  cpu time    0.0030: real time    0.0023
    --------------------------------------------
      LOOP:  cpu time   27.9537: real time   28.2497

 eigenvalue-minimisations  : 24230
 total energy-change (2. order) : 0.1073708E+02  (-0.4526357E+02)
 number of electron     408.0000023 magnetization      97.0201622
 augmentation part      233.6362339 magnetization      78.9791712

 Broyden mixing:
  rms(total) = 0.90046E+01    rms(broyden)= 0.90045E+01
  rms(prec ) = 0.15608E+02
  weight for this iteration     100.00

 eigenvalues of (default mixing * dielectric matrix)
  average eigenvalue GAMMA=   0.3679
  0.3679

 Free energy of the ion-electron system (eV)
  ---------------------------------------------------
  alpha Z        PSCENC =      2769.74827871
  Ewald energy   TEWEN  =    -32030.89420778
  -Hartree energ DENC   =     -6462.72677501
  -exchange      EXHF   =         0.00000000
  -V(xc)+E(xc)   XCENC  =       507.30020977
  PAW double counting   =     34093.46888627   -35037.60714312
  entropy T*S    EENTRO =         0.00000000
  eigenvalues    EBANDS =      1438.65918439
  atomic energy  EATOM  =     34327.30753815
  Solvation  Ediel_sol  =         0.00000000
  ---------------------------------------------------
  free energy    TOTEN  =      -394.74402863 eV

  energy without entropy =     -394.74402863  energy(sigma->0) =     -394.74402863


--------------------------------------------------------------------------------------------------------




--------------------------------------- Iteration      1(   7)  ---------------------------------------


    POTLOK:  cpu time    0.0890: real time    0.0911
    SETDIJ:  cpu time    0.0180: real time    0.0169
    EDDIAG:  cpu time    5.3912: real time    5.4323
  RMM-DIIS:  cpu time   21.3548: real time   21.6310
    ORTHCH:  cpu time    0.8979: real time    0.9053
 BZINTS: Fermi energy:  6.629392;408.000000 electrons
         Band energy:1550.755455;  BLOECHL correction: -0.008901
       DOS:  cpu time    0.1630: real time    0.1643
    CHARGE:  cpu time    0.7049: real time    0.7107
    MIXING:  cpu time    0.0020: real time    0.0021
    --------------------------------------------
      LOOP:  cpu time   28.6206: real time   28.9538

 eigenvalue-minimisations  : 25136
 total energy-change (2. order) :-0.6587215E+02  (-0.1275968E+02)
 number of electron     408.0000018 magnetization      87.9502905
 augmentation part      227.7763656 magnetization      72.3344118

 Broyden mixing:
  rms(total) = 0.13061E+02    rms(broyden)= 0.13061E+02
  rms(prec ) = 0.23223E+02
  weight for this iteration     100.00

 eigenvalues of (default mixing * dielectric matrix)
  average eigenvalue GAMMA=   0.3390
  0.5642  0.1139

 Free energy of the ion-electron system (eV)
  ---------------------------------------------------
  alpha Z        PSCENC =      2769.74827871
  Ewald energy   TEWEN  =    -32030.89420778
  -Hartree energ DENC   =     -6586.87514262
  -exchange      EXHF   =         0.00000000
  -V(xc)+E(xc)   XCENC  =       511.65137830
  PAW double counting   =     34892.66426573   -35894.97374454
  entropy T*S    EENTRO =         0.00000000
  eigenvalues    EBANDS =      1550.75545500
  atomic energy  EATOM  =     34327.30753815
  Solvation  Ediel_sol  =         0.00000000
  ---------------------------------------------------
  free energy    TOTEN  =      -460.61617905 eV

  energy without entropy =     -460.61617905  energy(sigma->0) =     -460.61617905


--------------------------------------------------------------------------------------------------------




--------------------------------------- Iteration      1(   8)  ---------------------------------------


    POTLOK:  cpu time    0.0900: real time    0.0907
    SETDIJ:  cpu time    0.0160: real time    0.0163
    EDDIAG:  cpu time    5.3182: real time    5.3541
  RMM-DIIS:  cpu time   20.2679: real time   20.5146
    ORTHCH:  cpu time    0.8509: real time    0.8574
 BZINTS: Fermi energy:  6.845765;408.000000 electrons
         Band energy:1754.362948;  BLOECHL correction: -0.010479
       DOS:  cpu time    0.1510: real time    0.1507
    CHARGE:  cpu time    0.7419: real time    0.7450
    MIXING:  cpu time    0.0020: real time    0.0019
    --------------------------------------------
      LOOP:  cpu time   27.4378: real time   27.7308

 eigenvalue-minimisations  : 23635
 total energy-change (2. order) : 0.5383092E+02  (-0.5450134E+01)
 number of electron     408.0000010 magnetization      85.0373053
 augmentation part      221.6199293 magnetization      68.5063008

 Broyden mixing:
  rms(total) = 0.95982E+01    rms(broyden)= 0.95980E+01
  rms(prec ) = 0.14745E+02
  weight for this iteration     100.00

 eigenvalues of (default mixing * dielectric matrix)
  average eigenvalue GAMMA=   0.3301
  0.6192  0.2480  0.1230

 Free energy of the ion-electron system (eV)
  ---------------------------------------------------
  alpha Z        PSCENC =      2769.74827871
  Ewald energy   TEWEN  =    -32030.89420778
  -Hartree energ DENC   =     -6669.01030376
  -exchange      EXHF   =         0.00000000
  -V(xc)+E(xc)   XCENC  =       511.69807759
  PAW double counting   =     36124.58788561   -37194.58547554
  entropy T*S    EENTRO =         0.00000000
  eigenvalues    EBANDS =      1754.36294762
  atomic energy  EATOM  =     34327.30753815
  Solvation  Ediel_sol  =         0.00000000
  ---------------------------------------------------
  free energy    TOTEN  =      -406.78525940 eV

  energy without entropy =     -406.78525940  energy(sigma->0) =     -406.78525940


--------------------------------------------------------------------------------------------------------




--------------------------------------- Iteration      1(   9)  ---------------------------------------


    POTLOK:  cpu time    0.0870: real time    0.0889
    SETDIJ:  cpu time    0.0170: real time    0.0160
    EDDIAG:  cpu time    5.3932: real time    5.4441
  RMM-DIIS:  cpu time   19.8660: real time   20.1460
    ORTHCH:  cpu time    0.8859: real time    0.8995
 BZINTS: Fermi energy:  6.734064;408.000000 electrons
         Band energy:1781.146287;  BLOECHL correction: -0.022069
       DOS:  cpu time    0.1410: real time    0.1418
    CHARGE:  cpu time    0.7189: real time    0.7240
    MIXING:  cpu time    0.0020: real time    0.0023
    --------------------------------------------
      LOOP:  cpu time   27.1109: real time   27.4627

 eigenvalue-minimisations  : 23461
 total energy-change (2. order) : 0.4536493E+02  (-0.3399599E+01)
 number of electron     408.0000020 magnetization      82.2080304
 augmentation part      221.9659561 magnetization      64.1871077

 Broyden mixing:
  rms(total) = 0.41166E+01    rms(broyden)= 0.41164E+01
  rms(prec ) = 0.68358E+01
  weight for this iteration     100.00

 eigenvalues of (default mixing * dielectric matrix)
  average eigenvalue GAMMA=   0.4198
  0.9206  0.5116  0.1022  0.1447

 Free energy of the ion-electron system (eV)
  ---------------------------------------------------
  alpha Z        PSCENC =      2769.74827871
  Ewald energy   TEWEN  =    -32030.89420778
  -Hartree energ DENC   =     -6641.40236239
  -exchange      EXHF   =         0.00000000
  -V(xc)+E(xc)   XCENC  =       510.05426382
  PAW double counting   =     36457.45537947   -37534.83550466
  entropy T*S    EENTRO =         0.00000000
  eigenvalues    EBANDS =      1781.14628663
  atomic energy  EATOM  =     34327.30753815
  Solvation  Ediel_sol  =         0.00000000
  ---------------------------------------------------
  free energy    TOTEN  =      -361.42032806 eV

  energy without entropy =     -361.42032806  energy(sigma->0) =     -361.42032806


--------------------------------------------------------------------------------------------------------




--------------------------------------- Iteration      1(  10)  ---------------------------------------


    POTLOK:  cpu time    0.0900: real time    0.0908
    SETDIJ:  cpu time    0.0160: real time    0.0162
    EDDIAG:  cpu time    5.4862: real time    5.5431
  RMM-DIIS:  cpu time   20.3569: real time   20.5689
    ORTHCH:  cpu time    0.8629: real time    0.8667
 BZINTS: Fermi energy:  6.751677;408.000000 electrons
         Band energy:1771.680895;  BLOECHL correction: -0.032310
       DOS:  cpu time    0.1480: real time    0.1492
    CHARGE:  cpu time    0.6889: real time    0.6902
    MIXING:  cpu time    0.0030: real time    0.0021
    --------------------------------------------
      LOOP:  cpu time   27.6518: real time   27.9271

 eigenvalue-minimisations  : 23929
 total energy-change (2. order) :-0.2112219E+02  (-0.2023799E+01)
 number of electron     408.0000021 magnetization      78.6225006
 augmentation part      222.3180479 magnetization      63.6665634

 Broyden mixing:
  rms(total) = 0.70503E+01    rms(broyden)= 0.70502E+01
  rms(prec ) = 0.11471E+02
  weight for this iteration     100.00

 eigenvalues of (default mixing * dielectric matrix)
  average eigenvalue GAMMA=   0.4042
  1.0926  0.5485  0.1397  0.1397  0.1003

 Free energy of the ion-electron system (eV)
  ---------------------------------------------------
  alpha Z        PSCENC =      2769.74827871
  Ewald energy   TEWEN  =    -32030.89420778
  -Hartree energ DENC   =     -6635.19634255
  -exchange      EXHF   =         0.00000000
  -V(xc)+E(xc)   XCENC  =       511.89512914
  PAW double counting   =     37007.63812139   -38104.72193219
  entropy T*S    EENTRO =         0.00000000
  eigenvalues    EBANDS =      1771.68089525
  atomic energy  EATOM  =     34327.30753815
  Solvation  Ediel_sol  =         0.00000000
  ---------------------------------------------------
  free energy    TOTEN  =      -382.54251987 eV

  energy without entropy =     -382.54251987  energy(sigma->0) =     -382.54251987


--------------------------------------------------------------------------------------------------------




--------------------------------------- Iteration      1(  11)  ---------------------------------------


    POTLOK:  cpu time    0.0860: real time    0.0867
    SETDIJ:  cpu time    0.0150: real time    0.0154
    EDDIAG:  cpu time    5.2662: real time    5.2926
  RMM-DIIS:  cpu time   18.9841: real time   19.0577
    ORTHCH:  cpu time    0.8559: real time    0.8570
 BZINTS: Fermi energy:  6.664708;408.000000 electrons
         Band energy:1768.040914;  BLOECHL correction: -0.021594
       DOS:  cpu time    0.1450: real time    0.1464
    CHARGE:  cpu time    0.6939: real time    0.6941
    MIXING:  cpu time    0.0030: real time    0.0021
    --------------------------------------------
      LOOP:  cpu time   26.0490: real time   26.1519

 eigenvalue-minimisations  : 23794
 total energy-change (2. order) : 0.2101266E+02  (-0.1264071E+01)
 number of electron     408.0000016 magnetization      77.9986609
 augmentation part      222.4856527 magnetization      62.6532078

 Broyden mixing:
  rms(total) = 0.34307E+01    rms(broyden)= 0.34305E+01
  rms(prec ) = 0.56442E+01
  weight for this iteration     100.00

 eigenvalues of (default mixing * dielectric matrix)
  average eigenvalue GAMMA=   0.3798
  1.1388  0.5203  0.2473  0.1574  0.1180  0.0970

 Free energy of the ion-electron system (eV)
  ---------------------------------------------------
  alpha Z        PSCENC =      2769.74827871
  Ewald energy   TEWEN  =    -32030.89420778
  -Hartree energ DENC   =     -6596.92760521
  -exchange      EXHF   =         0.00000000
  -V(xc)+E(xc)   XCENC  =       512.26472776
  PAW double counting   =     37599.16552812   -38710.23503761
  entropy T*S    EENTRO =         0.00000000
  eigenvalues    EBANDS =      1768.04091411
  atomic energy  EATOM  =     34327.30753815
  Solvation  Ediel_sol  =         0.00000000
  ---------------------------------------------------
  free energy    TOTEN  =      -361.52986375 eV

  energy without entropy =     -361.52986375  energy(sigma->0) =     -361.52986375


--------------------------------------------------------------------------------------------------------




--------------------------------------- Iteration      1(  12)  ---------------------------------------


    POTLOK:  cpu time    0.0870: real time    0.0875
    SETDIJ:  cpu time    0.0150: real time    0.0155
    EDDIAG:  cpu time    5.1192: real time    5.1242
  RMM-DIIS:  cpu time   18.9011: real time   18.9619
    ORTHCH:  cpu time    0.8439: real time    0.8466
 BZINTS: Fermi energy:  6.630350;408.000000 electrons
         Band energy:1770.289324;  BLOECHL correction: -0.027201
       DOS:  cpu time    0.1520: real time    0.1523
    CHARGE:  cpu time    0.6949: real time    0.6957
    MIXING:  cpu time    0.0030: real time    0.0022
    --------------------------------------------
      LOOP:  cpu time   25.8161: real time   25.8859

 eigenvalue-minimisations  : 23826
 total energy-change (2. order) : 0.3548721E+01  (-0.3284335E+00)
 number of electron     408.0000021 magnetization      77.5367185
 augmentation part      222.5009661 magnetization      61.9240806

 Broyden mixing:
  rms(total) = 0.20574E+01    rms(broyden)= 0.20572E+01
  rms(prec ) = 0.29570E+01
  weight for this iteration     100.00

 eigenvalues of (default mixing * dielectric matrix)
  average eigenvalue GAMMA=   0.4032
  1.2329  0.5653  0.5653  0.1364  0.1364  0.0986  0.0873

 Free energy of the ion-electron system (eV)
  ---------------------------------------------------
  alpha Z        PSCENC =      2769.74827871
  Ewald energy   TEWEN  =    -32030.89420778
  -Hartree energ DENC   =     -6592.17428976
  -exchange      EXHF   =         0.00000000
  -V(xc)+E(xc)   XCENC  =       512.44540232
  PAW double counting   =     37742.65464995   -38857.35783869
  entropy T*S    EENTRO =         0.00000000
  eigenvalues    EBANDS =      1770.28932440
  atomic energy  EATOM  =     34327.30753815
  Solvation  Ediel_sol  =         0.00000000
  ---------------------------------------------------
  free energy    TOTEN  =      -357.98114270 eV

  energy without entropy =     -357.98114270  energy(sigma->0) =     -357.98114270


--------------------------------------------------------------------------------------------------------




--------------------------------------- Iteration      1(  13)  ---------------------------------------


    POTLOK:  cpu time    0.0870: real time    0.0873
    SETDIJ:  cpu time    0.0160: real time    0.0154
    EDDIAG:  cpu time    5.0502: real time    5.0610
  RMM-DIIS:  cpu time   18.9731: real time   19.0415
    ORTHCH:  cpu time    0.8649: real time    0.8663
 BZINTS: Fermi energy:  6.609091;408.000000 electrons
         Band energy:1766.285531;  BLOECHL correction: -0.028686
       DOS:  cpu time    0.1490: real time    0.1493
    CHARGE:  cpu time    0.7219: real time    0.7232
    MIXING:  cpu time    0.0030: real time    0.0022
    --------------------------------------------
      LOOP:  cpu time   25.8651: real time   25.9462

 eigenvalue-minimisations  : 24224
 total energy-change (2. order) :-0.9894366E+00  (-0.1663461E+00)
 number of electron     408.0000018 magnetization      77.6357817
 augmentation part      222.5887088 magnetization      62.4522124

 Broyden mixing:
  rms(total) = 0.21768E+01    rms(broyden)= 0.21768E+01
  rms(prec ) = 0.33152E+01
  weight for this iteration     100.00

 eigenvalues of (default mixing * dielectric matrix)
  average eigenvalue GAMMA=   0.3800
  1.2554  0.5896  0.5896  0.1728  0.1199  0.1199  0.0963  0.0963

 Free energy of the ion-electron system (eV)
  ---------------------------------------------------
  alpha Z        PSCENC =      2769.74827871
  Ewald energy   TEWEN  =    -32030.89420778
  -Hartree energ DENC   =     -6582.72807598
  -exchange      EXHF   =         0.00000000
  -V(xc)+E(xc)   XCENC  =       513.55631997
  PAW double counting   =     38039.13184005   -39161.37780389
  entropy T*S    EENTRO =         0.00000000
  eigenvalues    EBANDS =      1766.28553146
  atomic energy  EATOM  =     34327.30753815
  Solvation  Ediel_sol  =         0.00000000
  ---------------------------------------------------
  free energy    TOTEN  =      -358.97057931 eV

  energy without entropy =     -358.97057931  energy(sigma->0) =     -358.97057931


--------------------------------------------------------------------------------------------------------




--------------------------------------- Iteration      1(  14)  ---------------------------------------


    POTLOK:  cpu time    0.0880: real time    0.0885
    SETDIJ:  cpu time    0.0160: real time    0.0154
    EDDIAG:  cpu time    5.0372: real time    5.0454
  RMM-DIIS:  cpu time   19.0041: real time   19.0837
    ORTHCH:  cpu time    0.8629: real time    0.8675
 BZINTS: Fermi energy:  6.595692;408.000000 electrons
         Band energy:1763.989810;  BLOECHL correction: -0.032611
       DOS:  cpu time    0.1450: real time    0.1466
    CHARGE:  cpu time    0.6849: real time    0.6860
    MIXING:  cpu time    0.0030: real time    0.0027
    --------------------------------------------
      LOOP:  cpu time   25.8411: real time   25.9357

 eigenvalue-minimisations  : 23968
 total energy-change (2. order) : 0.1217840E+01  (-0.7773243E-01)
 number of electron     408.0000019 magnetization      78.1477838
 augmentation part      222.8302610 magnetization      62.8331176

 Broyden mixing:
  rms(total) = 0.12962E+01    rms(broyden)= 0.12962E+01
  rms(prec ) = 0.15928E+01
  weight for this iteration     100.00

 eigenvalues of (default mixing * dielectric matrix)
  average eigenvalue GAMMA=   0.3851
  1.2302  0.6620  0.6620  0.3485  0.1384  0.1384  0.1062  0.0992  0.0807

 Free energy of the ion-electron system (eV)
  ---------------------------------------------------
  alpha Z        PSCENC =      2769.74827871
  Ewald energy   TEWEN  =    -32030.89420778
  -Hartree energ DENC   =     -6576.22214048
  -exchange      EXHF   =         0.00000000
  -V(xc)+E(xc)   XCENC  =       514.47944993
  PAW double counting   =     38202.81551300   -39328.97698065
  entropy T*S    EENTRO =         0.00000000
  eigenvalues    EBANDS =      1763.98980979
  atomic energy  EATOM  =     34327.30753815
  Solvation  Ediel_sol  =         0.00000000
  ---------------------------------------------------
  free energy    TOTEN  =      -357.75273933 eV

  energy without entropy =     -357.75273933  energy(sigma->0) =     -357.75273933


--------------------------------------------------------------------------------------------------------




--------------------------------------- Iteration      1(  15)  ---------------------------------------


    POTLOK:  cpu time    0.0870: real time    0.0878
    SETDIJ:  cpu time    0.0160: real time    0.0155
    EDDIAG:  cpu time    5.0942: real time    5.1091
  RMM-DIIS:  cpu time   19.1361: real time   19.2043
    ORTHCH:  cpu time    0.8769: real time    0.8780
 BZINTS: Fermi energy:  6.596436;408.000000 electrons
         Band energy:1763.496707;  BLOECHL correction: -0.034286
       DOS:  cpu time    0.1490: real time    0.1488
    CHARGE:  cpu time    0.7009: real time    0.7021
    MIXING:  cpu time    0.0030: real time    0.0025
    --------------------------------------------
      LOOP:  cpu time   26.0630: real time   26.1482

 eigenvalue-minimisations  : 24267
 total energy-change (2. order) :-0.2209404E-02  (-0.2174912E-01)
 number of electron     408.0000019 magnetization      79.4497893
 augmentation part      222.8231238 magnetization      64.2832244

 Broyden mixing:
  rms(total) = 0.11425E+01    rms(broyden)= 0.11425E+01
  rms(prec ) = 0.12789E+01
  weight for this iteration     100.00

 eigenvalues of (default mixing * dielectric matrix)
  average eigenvalue GAMMA=   0.4063
  1.1913  0.8559  0.8559  0.4282  0.1653  0.1653  0.1173  0.1034  0.0966  0.0839

 Free energy of the ion-electron system (eV)
  ---------------------------------------------------
  alpha Z        PSCENC =      2769.74827871
  Ewald energy   TEWEN  =    -32030.89420778
  -Hartree energ DENC   =     -6575.06629187
  -exchange      EXHF   =         0.00000000
  -V(xc)+E(xc)   XCENC  =       515.28419671
  PAW double counting   =     38261.18523529   -39388.81640520
  entropy T*S    EENTRO =         0.00000000
  eigenvalues    EBANDS =      1763.49670724
  atomic energy  EATOM  =     34327.30753815
  Solvation  Ediel_sol  =         0.00000000
  ---------------------------------------------------
  free energy    TOTEN  =      -357.75494874 eV

  energy without entropy =     -357.75494874  energy(sigma->0) =     -357.75494874


--------------------------------------------------------------------------------------------------------




--------------------------------------- Iteration      1(  16)  ---------------------------------------


    POTLOK:  cpu time    0.0890: real time    0.0900
    SETDIJ:  cpu time    0.0160: real time    0.0156
    EDDIAG:  cpu time    5.1102: real time    5.1192
  RMM-DIIS:  cpu time   19.0071: real time   19.0597
    ORTHCH:  cpu time    0.9259: real time    0.9277
 BZINTS: Fermi energy:  6.601883;408.000000 electrons
         Band energy:1761.708614;  BLOECHL correction: -0.033296
       DOS:  cpu time    0.1460: real time    0.1458
    CHARGE:  cpu time    0.6819: real time    0.6829
    MIXING:  cpu time    0.0030: real time    0.0026
    --------------------------------------------
      LOOP:  cpu time   25.9791: real time   26.0435

 eigenvalue-minimisations  : 24192
 total energy-change (2. order) :-0.3693159E+00  (-0.2108384E-01)
 number of electron     408.0000019 magnetization      80.6620647
 augmentation part      222.9184209 magnetization      65.4889718

 Broyden mixing:
  rms(total) = 0.11035E+01    rms(broyden)= 0.11035E+01
  rms(prec ) = 0.13288E+01
  weight for this iteration     100.00

 eigenvalues of (default mixing * dielectric matrix)
  average eigenvalue GAMMA=   0.4444
  1.1789  1.0716  1.0716  0.4434  0.4434  0.1409  0.1314  0.1314  0.0973  0.0973
  0.0812

 Free energy of the ion-electron system (eV)
  ---------------------------------------------------
  alpha Z        PSCENC =      2769.74827871
  Ewald energy   TEWEN  =    -32030.89420778
  -Hartree energ DENC   =     -6572.79552222
  -exchange      EXHF   =         0.00000000
  -V(xc)+E(xc)   XCENC  =       517.01170660
  PAW double counting   =     38369.42450636   -39499.63517827
  entropy T*S    EENTRO =         0.00000000
  eigenvalues    EBANDS =      1761.70861385
  atomic energy  EATOM  =     34327.30753815
  Solvation  Ediel_sol  =         0.00000000
  ---------------------------------------------------
  free energy    TOTEN  =      -358.12426460 eV

  energy without entropy =     -358.12426460  energy(sigma->0) =     -358.12426460


--------------------------------------------------------------------------------------------------------




--------------------------------------- Iteration      1(  17)  ---------------------------------------


    POTLOK:  cpu time    0.0870: real time    0.0870
    SETDIJ:  cpu time    0.0160: real time    0.0154
    EDDIAG:  cpu time    5.0832: real time    5.0969
  RMM-DIIS:  cpu time   18.9601: real time   19.0189
    ORTHCH:  cpu time    0.8459: real time    0.8473
 BZINTS: Fermi energy:  6.606613;408.000000 electrons
         Band energy:1760.065495;  BLOECHL correction: -0.034448
       DOS:  cpu time    0.1470: real time    0.1464
    CHARGE:  cpu time    0.7169: real time    0.7184
    MIXING:  cpu time    0.0040: real time    0.0028
    --------------------------------------------
      LOOP:  cpu time   25.8601: real time   25.9332

 eigenvalue-minimisations  : 24151
 total energy-change (2. order) :-0.4002961E+00  (-0.3563190E-01)
 number of electron     408.0000019 magnetization      83.5434290
 augmentation part      222.9555755 magnetization      68.4111432

 Broyden mixing:
  rms(total) = 0.11729E+01    rms(broyden)= 0.11729E+01
  rms(prec ) = 0.16058E+01
  weight for this iteration     100.00

 eigenvalues of (default mixing * dielectric matrix)
  average eigenvalue GAMMA=   0.4971
  1.3592  1.3592  1.2890  0.5735  0.5735  0.1407  0.1407  0.1442  0.1110  0.0967
  0.0967  0.0811

 Free energy of the ion-electron system (eV)
  ---------------------------------------------------
  alpha Z        PSCENC =      2769.74827871
  Ewald energy   TEWEN  =    -32030.89420778
  -Hartree energ DENC   =     -6570.46447805
  -exchange      EXHF   =         0.00000000
  -V(xc)+E(xc)   XCENC  =       518.49791546
  PAW double counting   =     38478.43285509   -39611.21795713
  entropy T*S    EENTRO =         0.00000000
  eigenvalues    EBANDS =      1760.06549483
  atomic energy  EATOM  =     34327.30753815
  Solvation  Ediel_sol  =         0.00000000
  ---------------------------------------------------
  free energy    TOTEN  =      -358.52456072 eV

  energy without entropy =     -358.52456072  energy(sigma->0) =     -358.52456072


--------------------------------------------------------------------------------------------------------




--------------------------------------- Iteration      1(  18)  ---------------------------------------


    POTLOK:  cpu time    0.0860: real time    0.0871
    SETDIJ:  cpu time    0.0160: real time    0.0154
    EDDIAG:  cpu time    5.0322: real time    5.0430
  RMM-DIIS:  cpu time   18.9831: real time   19.0435
    ORTHCH:  cpu time    0.8399: real time    0.8434
 BZINTS: Fermi energy:  6.626025;408.000000 electrons
         Band energy:1757.087636;  BLOECHL correction: -0.035607
       DOS:  cpu time    0.1420: real time    0.1426
    CHARGE:  cpu time    0.6979: real time    0.7004
    MIXING:  cpu time    0.0040: real time    0.0029
    --------------------------------------------
      LOOP:  cpu time   25.8011: real time   25.8783

 eigenvalue-minimisations  : 23946
 total energy-change (2. order) :-0.9249860E+00  (-0.8154616E-01)
 number of electron     408.0000019 magnetization      84.8162079
 augmentation part      223.0946266 magnetization      69.6244195

 Broyden mixing:
  rms(total) = 0.16098E+01    rms(broyden)= 0.16097E+01
  rms(prec ) = 0.24759E+01
  weight for this iteration     100.00

 eigenvalues of (default mixing * dielectric matrix)
  average eigenvalue GAMMA=   0.4894
  1.4101  1.4101  1.3812  0.5953  0.5953  0.1751  0.1432  0.1432  0.1376  0.0810
  0.1023  0.0939  0.0939

 Free energy of the ion-electron system (eV)
  ---------------------------------------------------
  alpha Z        PSCENC =      2769.74827871
  Ewald energy   TEWEN  =    -32030.89420778
  -Hartree energ DENC   =     -6563.37314013
  -exchange      EXHF   =         0.00000000
  -V(xc)+E(xc)   XCENC  =       521.67689534
  PAW double counting   =     38824.23391003   -39965.23645734
  entropy T*S    EENTRO =         0.00000000
  eigenvalues    EBANDS =      1757.08763629
  atomic energy  EATOM  =     34327.30753815
  Solvation  Ediel_sol  =         0.00000000
  ---------------------------------------------------
  free energy    TOTEN  =      -359.44954674 eV

  energy without entropy =     -359.44954674  energy(sigma->0) =     -359.44954674


--------------------------------------------------------------------------------------------------------




--------------------------------------- Iteration      1(  19)  ---------------------------------------


    POTLOK:  cpu time    0.0870: real time    0.0884
    SETDIJ:  cpu time    0.0150: real time    0.0155
    EDDIAG:  cpu time    5.2572: real time    5.2867
  RMM-DIIS:  cpu time   20.2579: real time   20.4879
    ORTHCH:  cpu time    0.8969: real time    0.9049
 BZINTS: Fermi energy:  6.622690;408.000000 electrons
         Band energy:1757.207160;  BLOECHL correction: -0.030138
       DOS:  cpu time    0.1460: real time    0.1473
    CHARGE:  cpu time    0.7079: real time    0.7124
    MIXING:  cpu time    0.0040: real time    0.0030
    --------------------------------------------
      LOOP:  cpu time   27.3718: real time   27.6459

 eigenvalue-minimisations  : 23761
 total energy-change (2. order) : 0.6810653E+00  (-0.6028843E-01)
 number of electron     408.0000018 magnetization      85.9558873
 augmentation part      223.1141799 magnetization      70.6253518

 Broyden mixing:
  rms(total) = 0.86809E+00    rms(broyden)= 0.86804E+00
  rms(prec ) = 0.12929E+01
  weight for this iteration     100.00

 eigenvalues of (default mixing * dielectric matrix)
  average eigenvalue GAMMA=   0.5157
  1.6003  1.5267  1.5267  0.6356  0.6356  0.3884  0.1485  0.1394  0.1394  0.1147
  0.0974  0.0974  0.0814  0.0888

 Free energy of the ion-electron system (eV)
  ---------------------------------------------------
  alpha Z        PSCENC =      2769.74827871
  Ewald energy   TEWEN  =    -32030.89420778
  -Hartree energ DENC   =     -6560.35708811
  -exchange      EXHF   =         0.00000000
  -V(xc)+E(xc)   XCENC  =       522.91760528
  PAW double counting   =     38979.58747397   -40124.28524177
  entropy T*S    EENTRO =         0.00000000
  eigenvalues    EBANDS =      1757.20716008
  atomic energy  EATOM  =     34327.30753815
  Solvation  Ediel_sol  =         0.00000000
  ---------------------------------------------------
  free energy    TOTEN  =      -358.76848148 eV

  energy without entropy =     -358.76848148  energy(sigma->0) =     -358.76848148


--------------------------------------------------------------------------------------------------------




--------------------------------------- Iteration      1(  20)  ---------------------------------------


    POTLOK:  cpu time    0.0910: real time    0.0930
    SETDIJ:  cpu time    0.0160: real time    0.0161
    EDDIAG:  cpu time    5.3642: real time    5.3926
  RMM-DIIS:  cpu time   20.5999: real time   20.8017
    ORTHCH:  cpu time    0.8619: real time    0.8681
 BZINTS: Fermi energy:  6.626491;408.000000 electrons
         Band energy:1756.868788;  BLOECHL correction: -0.031751
       DOS:  cpu time    0.1490: real time    0.1489
    CHARGE:  cpu time    0.7419: real time    0.7462
    MIXING:  cpu time    0.0030: real time    0.0036
    --------------------------------------------
      LOOP:  cpu time   27.8268: real time   28.0702

 eigenvalue-minimisations  : 23928
 total energy-change (2. order) :-0.9756456E-01  (-0.3838691E-01)
 number of electron     408.0000019 magnetization      87.4574878
 augmentation part      223.0943449 magnetization      72.1747691

 Broyden mixing:
  rms(total) = 0.88594E+00    rms(broyden)= 0.88591E+00
  rms(prec ) = 0.12864E+01
  weight for this iteration     100.00

 eigenvalues of (default mixing * dielectric matrix)
  average eigenvalue GAMMA=   0.5194
  1.7740  1.6112  1.6112  0.6583  0.6583  0.4351  0.1530  0.1530  0.1357  0.1357
  0.1077  0.0981  0.0981  0.0810  0.0810

 Free energy of the ion-electron system (eV)
  ---------------------------------------------------
  alpha Z        PSCENC =      2769.74827871
  Ewald energy   TEWEN  =    -32030.89420778
  -Hartree energ DENC   =     -6558.41286482
[...]
   46       -0.033  -0.067   0.725   0.625
   47       -0.031  -0.061   0.719   0.627
   48       -0.030  -0.064   0.759   0.665
--------------------------------------------------
tot         -0.721  -2.008  94.174  91.445
 
    CHARGE:  cpu time    0.6849: real time    0.7024
    FORLOC:  cpu time    0.0150: real time    0.0145
    FORNL :  cpu time    8.9606: real time    9.4133
    STRESS:  cpu time   24.7422: real time   24.9461
    FORCOR:  cpu time    0.0970: real time    0.0966
    FORHAR:  cpu time    0.0210: real time    0.0214
    MIXING:  cpu time    0.0080: real time    0.0081
    OFIELD:  cpu time    0.0000: real time    0.0001

  FORCE on cell =-STRESS in cart. coord.  units (eV):
  Direction    XX          YY          ZZ          XY          YZ          ZX
  --------------------------------------------------------------------------------------
  Alpha Z  2769.74828  2769.74828  2769.74828
  Ewald  -10648.49551-10718.58302-10663.96770    22.75833    70.84543    -8.74992
  Hartree  2211.60782  2143.79652  2193.49888    21.48204    70.32472    -8.13096
  E(xc)   -2092.57901 -2092.67275 -2092.43544    -0.03473    -0.03400    -0.08052
  Local    1720.40016  1856.89038  1754.62120   -44.84944  -141.60871    15.10478
  n-local -1012.30058 -1013.61401 -1012.90076     0.76355     0.62105     0.21089
  augment  3507.48665  3508.86056  3507.30406     0.24993     0.14813     1.26011
  Kinetic  3549.31849  3548.81188  3546.77550     1.18641    -0.67617     2.29466
  Fock        0.00000     0.00000     0.00000     0.00000     0.00000     0.00000
  -------------------------------------------------------------------------------------
  Total       5.18630     3.23784     2.64403     1.55608    -0.37956     1.90904
  in kB      15.15509     9.46142     7.72624     4.54709    -1.10913     5.57848
  external pressure =       10.78 kB  Pullay stress =        0.00 kB


 VOLUME and BASIS-vectors are now :
 -----------------------------------------------------------------------------
  energy-cutoff  :      520.00
  volume of cell :      548.29
      direct lattice vectors                 reciprocal lattice vectors
     7.150000000 -7.150000000  0.000000000     0.093240093 -0.046620047 -0.046620047
     0.000000000  7.150000000 -7.150000000     0.046620047  0.046620047 -0.093240093
     3.575000000  3.575000000  3.575000000     0.093240093  0.093240093  0.093240093

  length of vectors
    10.111626971 10.111626971  6.192081637     0.114195326  0.114195326  0.161496579


 FORCES acting on ions
    electron-ion (+dipol)            ewald-force                    non-local-force                 convergence-correction
 -----------------------------------------------------------------------------------------------
   -.860E+01 0.426E+02 -.592E+02   0.864E+01 -.430E+02 0.592E+02   -.289E-01 0.337E+00 -.314E-01   0.104E-02 -.276E-02 0.223E-02
   0.240E+02 -.105E+01 -.336E+02   -.240E+02 0.902E+00 0.338E+02   0.299E-01 0.143E+00 -.143E+00   -.165E-02 0.119E-02 0.281E-03
   0.502E+02 0.330E+02 -.591E+02   -.508E+02 -.332E+02 0.594E+02   0.603E+00 0.184E+00 -.308E+00   0.387E-03 0.124E-02 -.527E-03
   -.662E+02 0.368E+01 -.188E+01   0.663E+02 -.340E+01 0.177E+01   -.113E+00 -.285E+00 0.123E+00   -.874E-03 -.660E-03 0.125E-02
   -.500E+02 0.103E+03 -.129E+02   0.502E+02 -.103E+03 0.128E+02   -.196E+00 0.730E+00 0.368E-01   -.621E-03 0.709E-03 0.104E-02
   -.355E+02 -.294E+02 -.113E+02   0.357E+02 0.298E+02 0.116E+02   -.209E+00 -.448E+00 -.264E+00   -.844E-03 -.176E-02 0.212E-02
   -.152E+02 0.847E+02 -.749E+01   0.153E+02 -.850E+02 0.774E+01   -.133E+00 0.344E+00 -.257E+00   -.340E-03 -.127E-02 0.196E-02
   0.144E+02 -.863E+02 -.101E+02   -.143E+02 0.867E+02 0.105E+02   -.128E+00 -.378E+00 -.352E+00   0.496E-03 -.484E-03 0.107E-02
   0.431E+02 0.590E+01 0.469E+02   -.432E+02 -.625E+01 -.472E+02   0.281E-01 0.354E+00 0.336E+00   -.261E-03 -.803E-03 0.183E-02
   0.382E+02 -.259E+02 -.648E+01   -.383E+02 0.261E+02 0.644E+01   0.121E+00 -.237E+00 0.376E-01   0.663E-03 0.127E-02 0.934E-04
   0.512E+02 -.344E+02 -.778E+01   -.515E+02 0.347E+02 0.790E+01   0.273E+00 -.335E+00 -.132E+00   -.480E-03 0.434E-03 -.126E-02
   -.330E+02 -.673E+02 0.802E+02   0.334E+02 0.676E+02 -.806E+02   -.349E+00 -.330E+00 0.439E+00   -.166E-03 0.208E-02 -.250E-02
   -.826E+02 -.154E+02 0.377E+02   0.831E+02 0.156E+02 -.379E+02   -.521E+00 -.170E+00 0.202E+00   -.188E-02 0.188E-02 -.574E-03
   -.507E+02 -.124E+02 0.148E+01   0.508E+02 0.126E+02 -.157E+01   -.610E-01 -.143E+00 0.858E-01   0.969E-03 0.942E-04 0.568E-03
   -.429E+02 0.915E+02 0.322E+02   0.429E+02 -.922E+02 -.325E+02   0.102E-01 0.676E+00 0.292E+00   -.685E-03 0.920E-03 0.979E-04
   -.117E+01 -.695E+02 0.464E+02   0.131E+01 0.697E+02 -.468E+02   -.138E+00 -.203E+00 0.426E+00   0.358E-02 -.156E-02 -.152E-02
   -.172E+02 -.314E+02 0.152E+02   0.174E+02 0.316E+02 -.152E+02   -.236E+00 -.171E+00 0.165E-01   0.118E-02 -.169E-02 -.363E-03
   -.234E+02 0.656E+02 0.162E+02   0.236E+02 -.659E+02 -.161E+02   -.101E+00 0.293E+00 -.788E-01   -.588E-03 -.954E-03 0.130E-02
   0.431E+02 -.922E+02 0.503E+02   -.436E+02 0.923E+02 -.507E+02   0.518E+00 -.169E+00 0.401E+00   0.118E-02 -.341E-03 -.822E-03
   0.723E+02 -.438E+02 0.682E+02   -.728E+02 0.438E+02 -.684E+02   0.460E+00 0.738E-02 0.273E+00   0.143E-02 -.179E-02 0.327E-03
   0.133E+02 -.261E+02 -.221E+02   -.133E+02 0.264E+02 0.223E+02   -.548E-02 -.312E+00 -.185E+00   0.148E-02 -.126E-02 0.386E-03
   -.395E+01 -.873E+01 -.273E+02   0.422E+01 0.854E+01 0.278E+02   -.264E+00 0.178E+00 -.543E+00   -.255E-02 0.330E-02 -.785E-03
   0.341E+01 -.384E+02 0.474E+02   -.316E+01 0.385E+02 -.477E+02   -.248E+00 -.122E+00 0.315E+00   -.169E-02 0.637E-03 -.196E-02
   -.205E+02 0.164E+02 -.417E+02   0.208E+02 -.163E+02 0.417E+02   -.294E+00 -.122E+00 -.133E-01   -.536E-03 0.225E-02 -.384E-03
   0.368E+02 0.330E+02 0.293E+02   -.371E+02 -.330E+02 -.294E+02   0.291E+00 0.672E-02 0.146E+00   -.115E-02 0.186E-02 -.930E-03
   -.209E+02 -.703E+02 0.515E+02   0.210E+02 0.708E+02 -.518E+02   -.855E-01 -.442E+00 0.335E+00   -.128E-02 0.224E-02 0.639E-05
   0.254E+02 0.305E+02 -.422E+02   -.258E+02 -.306E+02 0.420E+02   0.493E+00 0.105E+00 0.228E+00   0.360E-02 -.217E-02 0.729E-03
   0.214E+02 0.746E+02 -.369E+02   -.215E+02 -.749E+02 0.371E+02   0.188E+00 0.337E+00 -.228E+00   0.615E-03 -.180E-03 -.114E-02
   0.262E+02 0.555E+01 -.202E+02   -.264E+02 -.564E+01 0.204E+02   0.208E+00 0.875E-01 -.134E+00   0.159E-02 -.281E-02 -.187E-02
   -.867E+01 0.253E+02 -.484E+01   0.872E+01 -.253E+02 0.484E+01   -.435E-01 0.101E+00 0.663E-02   0.209E-02 -.204E-02 -.533E-03
   0.297E+02 -.421E+02 0.388E+02   -.299E+02 0.422E+02 -.389E+02   0.203E+00 -.322E-01 0.122E-01   0.296E-02 0.511E-03 -.829E-04
   -.201E+02 0.186E+02 -.333E+02   0.204E+02 -.184E+02 0.337E+02   -.286E+00 -.232E+00 -.319E+00   -.109E-02 -.290E-02 0.120E-02
   0.376E+02 -.445E+02 0.223E+01   -.379E+02 0.446E+02 -.241E+01   0.238E+00 -.138E+00 0.165E+00   -.166E-02 0.421E-03 -.287E-04
   0.323E+02 0.471E+01 0.209E+02   -.325E+02 -.479E+01 -.210E+02   0.259E+00 0.731E-01 0.715E-02   0.913E-04 0.132E-02 0.191E-02
   -.297E+02 0.275E+02 -.797E+02   0.300E+02 -.276E+02 0.801E+02   -.305E+00 0.737E-01 -.323E+00   -.229E-03 -.708E-04 -.208E-02
   -.888E+00 0.432E+02 -.571E+02   0.115E+01 -.434E+02 0.576E+02   -.254E+00 0.289E+00 -.452E+00   0.236E-02 -.238E-02 0.743E-03
   0.130E+02 -.316E+01 -.332E+02   -.132E+02 0.316E+01 0.334E+02   0.154E+00 0.173E-02 -.186E+00   -.186E-02 -.184E-02 0.402E-02
   -.629E+02 0.141E+02 -.292E+02   0.631E+02 -.142E+02 0.295E+02   -.227E+00 0.834E-01 -.207E+00   -.717E-03 0.127E-02 -.144E-02
   0.261E+01 -.601E+02 0.376E+02   -.259E+01 0.605E+02 -.378E+02   -.400E-01 -.367E+00 0.153E+00   -.120E-03 -.209E-02 0.174E-02
   0.325E+02 -.743E+02 -.458E+01   -.324E+02 0.744E+02 0.477E+01   -.504E-01 -.641E-01 -.192E+00   0.496E-03 0.117E-03 -.131E-02
   0.223E+02 0.611E+02 -.883E+02   -.225E+02 -.613E+02 0.886E+02   0.220E+00 0.129E+00 -.329E+00   -.671E-03 0.121E-03 -.187E-02
   -.235E+02 -.165E+01 0.981E+02   0.236E+02 0.177E+01 -.984E+02   -.116E+00 -.122E+00 0.305E+00   -.120E-02 0.248E-02 0.589E-04
   -.891E+02 0.703E+02 0.158E+02   0.894E+02 -.706E+02 -.158E+02   -.274E+00 0.260E+00 -.554E-01   -.219E-02 0.193E-02 -.401E-04
   0.450E+02 -.795E+02 0.684E+02   -.452E+02 0.797E+02 -.686E+02   0.138E+00 -.257E+00 0.162E+00   -.203E-03 0.345E-03 -.113E-02
   -.644E+02 0.471E+02 -.192E+01   0.646E+02 -.473E+02 0.174E+01   -.207E+00 0.171E+00 0.186E+00   -.208E-02 0.164E-02 -.662E-03
   0.627E+02 0.109E+02 -.533E+01   -.629E+02 -.109E+02 0.524E+01   0.211E+00 0.167E-01 0.857E-01   -.284E-04 0.148E-02 -.909E-03
   0.203E+02 -.578E+02 -.779E+01   -.203E+02 0.582E+02 0.780E+01   0.326E-01 -.421E+00 -.155E-01   -.151E-02 0.280E-02 -.115E-02
   0.102E+02 0.103E+03 -.592E+02   -.104E+02 -.104E+03 0.593E+02   0.185E+00 0.484E+00 -.654E-01   0.117E-02 -.586E-03 0.266E-03
 -----------------------------------------------------------------------------------------------
   0.512E-01 0.341E-01 0.420E-01   0.135E-12 -.853E-13 0.682E-12   -.486E-01 -.365E-01 -.411E-01   -.178E-02 0.214E-02 -.622E-03
 
 
 POSITION                                       TOTAL-FORCE (eV/Angst)
 -----------------------------------------------------------------------------------
      3.57065     10.68210     -3.56168         0.013034      0.003108     -0.000446
      7.14329      7.13349     -3.57562        -0.022115     -0.007540     -0.021284
      5.37514      1.76640     -7.10062        -0.016625     -0.001468     -0.011332
      5.32686      3.52412      1.80838        -0.012246     -0.002901      0.016734
      1.75793      1.81053     -0.01530        -0.010024      0.004699     -0.003009
      3.54694     -0.05274     -0.01519        -0.003431     -0.010808      0.025832
      3.54299      1.79488      1.75521         0.011565     -0.003089     -0.005488
      5.38711     -1.82386     -0.05291         0.007128     -0.004023     -0.004221
      5.34325      0.01371      1.75929        -0.020831      0.006738     -0.004751
      7.15117     -3.57839      0.00344         0.001137      0.010714      0.001340
      7.13085     -1.75329      1.77393        -0.020025      0.014671     -0.016284
      7.09489     -3.56364     -3.52899         0.006906      0.004838      0.004998
      5.28788      5.36198      0.03559         0.002355      0.004007      0.003753
      3.56289     -0.00213     -3.55211         0.021549      0.012145      0.003018
      3.54923      1.83418     -1.81634        -0.004079     -0.013985      0.007714
      5.40758     -1.77182     -3.51141         0.011774      0.009698      0.019844
      5.37248      0.01577     -1.76608        -0.015862      0.004960      0.037376
      5.34882      1.82361     -0.04542         0.010790     -0.007464     -0.002941
      7.22206     -1.76863     -1.76041         0.006386     -0.006386      0.002155
      7.22561      0.02260     -0.00008        -0.000237     -0.010164      0.025092
      3.54654      8.86693     -1.79190        -0.018438      0.015921      0.007719
      5.29804      7.15694     -1.80415         0.000612     -0.004022      0.012654
      1.76733      5.33068     -3.57895        -0.005283     -0.001443     -0.008776
      3.54396      1.79629     -5.32791         0.009354      0.003333     -0.007592
      3.59727      3.58487     -3.60405        -0.004326     -0.010043     -0.011514
      3.52068      5.33783     -1.80507        -0.014830      0.005032     -0.020499
      5.43179     -0.01303     -5.32301         0.017630      0.016778     -0.015202
      5.43477      1.78787     -3.57439        -0.002979      0.015142      0.002738
      7.25958     -0.01310     -3.56804        -0.001600     -0.003013      0.006243
      7.20350      1.83344     -1.78177         0.007850      0.020844      0.008764
      8.99577      0.05398     -1.80087         0.015509      0.015015     -0.026552
      1.77375      7.10243     -5.40499         0.005236     -0.006998     -0.002502
      3.60798      5.30326     -5.36123         0.012550     -0.017054     -0.012156
      3.51797      7.15836     -3.59265        -0.007268     -0.005913     -0.015663
      7.14772      3.63201     -3.59125         0.012832     -0.010221      0.007758
      8.93361      1.83757     -3.60645         0.015339      0.006997      0.011252
      5.33662      8.88882     -3.58619        -0.003916      0.000032     -0.000697
      7.12839     -5.36835     -1.74925         0.001131     -0.008968     -0.005537
      7.13786      1.74789      1.78449        -0.010693     -0.001306     -0.011902
      5.36539     -3.59540     -1.76661         0.003676     -0.007893     -0.001723
      8.95795     -3.53068      1.76008        -0.002687     -0.006718      0.004393
      1.76583      3.57366     -1.77436         0.001361      0.000535     -0.007744
      3.55261      3.57407     -0.00859         0.002862      0.008828      0.017018
      8.93828     -1.77903     -0.00017        -0.008117      0.002179     -0.003649
      5.34854      3.60020     -1.78340         0.012452     -0.009108      0.005512
      5.39517      3.57616     -5.36125         0.003449     -0.013118     -0.007366
      5.35875      5.35768     -3.57132        -0.008344      0.000230     -0.002389
      7.18672      1.82979     -5.36044        -0.000513     -0.012797     -0.000690
 -----------------------------------------------------------------------------------
    total drift:                                0.000832     -0.000165      0.000308


--------------------------------------------------------------------------------------------------------



  FREE ENERGIE OF THE ION-ELECTRON SYSTEM (eV)
  ---------------------------------------------------
  free  energy   TOTEN  =      -358.79803079 eV

  energy  without entropy=     -358.79803079  energy(sigma->0) =     -358.79803079
 


--------------------------------------------------------------------------------------------------------


    POTLOK:  cpu time    0.1030: real time    0.1034


--------------------------------------------------------------------------------------------------------


     LOOP+:  cpu time 1686.9126: real time 1708.2821
    4ORBIT:  cpu time    0.0000: real time    0.0000
 


 total charge     
 
# of ion       s       p       d       tot
------------------------------------------
    1        0.485   0.520   6.216   7.222
    2        0.475   0.509   6.196   7.180
    3        0.475   0.506   6.201   7.182
    4        0.477   0.511   6.212   7.200
    5        0.478   0.513   6.195   7.186
    6        0.478   0.510   6.204   7.192
    7        0.484   0.521   6.215   7.221
    8        0.481   0.519   6.208   7.208
    9        0.477   0.508   6.201   7.186
   10        0.479   0.510   6.202   7.191
   11        0.477   0.506   6.211   7.194
   12        0.486   0.523   6.213   7.222
   13        0.474   0.506   6.187   7.167
   14        0.479   0.514   6.201   7.194
   15        0.478   0.509   6.199   7.185
   16        0.486   0.528   6.221   7.234
   17        0.480   0.514   6.208   7.202
   18        0.479   0.513   6.207   7.199
   19        0.488   0.524   6.229   7.241
   20        0.481   0.516   6.202   7.199
   21        0.496   0.548   6.289   7.333
   22        0.484   0.523   6.212   7.219
   23        0.492   0.537   6.241   7.270
   24        0.477   0.504   6.200   7.180
   25        0.480   0.511   6.216   7.207
   26        0.476   0.509   6.196   7.181
   27        0.486   0.524   6.216   7.226
   28        0.475   0.507   6.189   7.171
   29        0.487   0.527   6.222   7.235
   30        0.484   0.521   6.217   7.222
   31        0.495   0.547   6.283   7.325
   32        0.482   0.518   6.214   7.214
   33        0.479   0.512   6.213   7.205
   34        0.486   0.526   6.220   7.232
   35        0.475   0.508   6.205   7.188
   36        0.488   0.531   6.234   7.253
   37        0.523   0.543   8.307   9.373
   38        0.514   0.519   8.307   9.339
   39        0.517   0.531   8.305   9.353
   40        0.519   0.536   8.314   9.370
   41        0.515   0.526   8.305   9.346
   42        0.520   0.535   8.321   9.376
   43        0.512   0.521   8.310   9.342
   44        0.513   0.522   8.308   9.343
   45        0.517   0.527   8.313   9.357
   46        0.520   0.538   8.315   9.373
   47        0.515   0.529   8.312   9.356
   48        0.518   0.535   8.305   9.359
--------------------------------------------------
tot         23.543  24.993 323.418 371.954
 


 magnetization (x)
 
# of ion       s       p       d       tot
------------------------------------------
    1       -0.007  -0.029   2.494   2.458
    2       -0.007  -0.032   2.631   2.592
    3       -0.008  -0.030   2.616   2.578
    4       -0.011  -0.036   2.564   2.517
    5       -0.008  -0.031   2.637   2.599
    6       -0.013  -0.041   2.567   2.513
    7       -0.014  -0.039   2.548   2.496
    8       -0.013  -0.042   2.569   2.514
    9       -0.010  -0.041   2.588   2.537
   10       -0.004  -0.021   2.623   2.598
   11       -0.009  -0.029   2.580   2.542
   12       -0.002  -0.023   2.442   2.417
   13       -0.009  -0.033   2.644   2.601
   14       -0.013  -0.042   2.585   2.530
   15       -0.013  -0.038   2.618   2.567
   16       -0.008  -0.031   2.422   2.383
   17       -0.017  -0.046   2.543   2.480
   18       -0.011  -0.038   2.581   2.531
   19       -0.010  -0.033   2.432   2.390
   20       -0.006  -0.032   2.540   2.502
   21       -0.028  -0.059   0.004  -0.083
   22       -0.012  -0.042   2.418   2.364
   23       -0.012  -0.038   2.185   2.135
   24       -0.010  -0.039   2.605   2.556
   25       -0.010  -0.032   2.526   2.484
   26       -0.003  -0.025   2.531   2.503
   27       -0.014  -0.045   2.432   2.372
   28       -0.010  -0.036   2.627   2.581
   29       -0.008  -0.034   2.304   2.263
   30       -0.014  -0.042   2.418   2.362
   31       -0.031  -0.059  -0.170  -0.260
   32       -0.011  -0.037   2.465   2.418
   33       -0.011  -0.038   2.533   2.484
   34       -0.006  -0.030   2.354   2.317
   35       -0.007  -0.031   2.586   2.549
   36       -0.008  -0.031   2.374   2.335
   37       -0.029  -0.060   0.713   0.623
   38       -0.022  -0.052   0.751   0.677
   39       -0.028  -0.063   0.755   0.664
   40       -0.030  -0.060   0.728   0.638
   41       -0.026  -0.058   0.747   0.663
   42       -0.029  -0.059   0.699   0.610
   43       -0.025  -0.050   0.746   0.670
   44       -0.021  -0.042   0.711   0.648
   45       -0.030  -0.065   0.705   0.610
   46       -0.033  -0.067   0.725   0.625
   47       -0.031  -0.061   0.719   0.627
   48       -0.030  -0.064   0.759   0.665
--------------------------------------------------
tot         -0.721  -2.008  94.174  91.445
 
 BZINTS: Fermi energy:  6.642261;408.000000 electrons
         Band energy:1749.919520;  BLOECHL correction: -0.042267

 total amount of memory used by VASP MPI-rank0   110752. kBytes
=======================================================================

   base      :      30000. kBytes
   nonlr-proj:      11049. kBytes
   fftplans  :       2600. kBytes
   grid      :       6545. kBytes
   one-center:         93. kBytes
   wavefun   :      60465. kBytes
 
  
  
 General timing and accounting informations for this job:
 ========================================================
  
                  Total CPU time used (sec):     1731.594
                            User time (sec):     1706.153
                          System time (sec):       25.441
                         Elapsed time (sec):     1762.799
  
                   Maximum memory used (kb):      187636.
                   Average memory used (kb):           0.
  
                          Minor page faults:        55193
                          Major page faults:            0
                 Voluntary context switches:         7343
