SQS-NiFe                                
           1
     7.150000   -7.150000    0.000000
     0.000000    7.150000   -7.150000
     3.575000    3.575000    3.575000
   Fe   Ni
  36  12
Direct configuration=     1
   0.00097296  0.99655494  0.99683677
   0.50017285  0.99897494  0.99777747
   0.74986045  0.99500153  0.00381461
   0.24807617  0.24401975  0.99387951
   0.08021590  0.16778852  0.33129701
   0.33388435  0.16431674  0.32438362
   0.16484373  0.08519595  0.66135872
   0.58979005  0.17105250  0.32730500
   0.41554765  0.08570555  0.66351962
   0.83344040  0.16624240  0.33344671
   0.66391819  0.08530033  0.66680559
   0.99218702  0.49367044  0.00021167
   0.24140787  0.49317872  0.99631271
   0.49790271  0.49720158  0.00080615
   0.33009896  0.42033008  0.33259403
   0.75050802  0.49690390  0.01159470
   0.58252974  0.41586999  0.33773167
   0.41582499  0.33861426  0.66452290
   0.83790933  0.41837985  0.34433695
   0.67266701  0.33791988  0.67581651
   0.00084171  0.74579377  0.99035693
   0.24444197  0.74887082  0.99308398
   0.08312044  0.66461109  0.32811727
   0.49508369  0.74573769  0.00115130
   0.33630361  0.67087361  0.33362137
   0.16357104  0.58128905  0.65766406
   0.75522684  0.74894067  0.00892825
   0.59002651  0.66999623  0.34016277
   0.84383673  0.67051590  0.34297856
   0.66924571  0.58743458  0.67647253
   0.92020678  0.58981289  0.67588583
   0.08624960  0.91776965  0.32365347
   0.33911061  0.91532353  0.33100260
   0.16178261  0.83271041  0.66048336
   0.66455361  0.83739942  0.67025466
   0.91543532  0.83841864  0.66804015
   0.25037806  0.99756732  0.99200367
   0.99647468  0.24515337  0.00100602
   0.50085520  0.24786795  0.99489461
   0.75024686  0.24723601  0.00031445
   0.91778521  0.08890886  0.67014888
   0.08076263  0.41436892  0.33241388
   0.16502292  0.33304699  0.66369182
   0.91635282  0.33378025  0.66751298
   0.41399907  0.58347506  0.66809828
   0.58626670  0.91812650  0.33660369
   0.41637057  0.83259081  0.66621067
   0.83469015  0.92015815  0.34089205
