       N       E                     dE             d eps       ncg     rms          rms(c)
DAV:   1    -0.409366031734E+03   -0.40937E+03   -0.69520E-02  8736   0.250E+00    0.102E+00
RMM:   2    -0.409406695506E+03   -0.40664E-01   -0.14396E-01  8729   0.109E+00    0.625E+00
RMM:   3    -0.409271911750E+03    0.13478E+00   -0.47517E-02  8809   0.573E-01    0.343E+00
RMM:   4    -0.409252753210E+03    0.19159E-01   -0.38314E-02  8709   0.478E-01    0.255E+00
RMM:   5    -0.409239168278E+03    0.13585E-01   -0.13614E-02  8649   0.299E-01    0.163E+00
RMM:   6    -0.409230815268E+03    0.83530E-02   -0.67194E-03  8655   0.220E-01    0.866E-01
RMM:   7    -0.409228770067E+03    0.20452E-02   -0.21549E-03  8712   0.113E-01    0.767E-01
RMM:   8    -0.409225395633E+03    0.33744E-02   -0.14805E-03  8661   0.972E-02    0.426E-01
RMM:   9    -0.409224886815E+03    0.50882E-03   -0.11922E-03  8699   0.868E-02    0.486E-01
RMM:  10    -0.409223867729E+03    0.10191E-02   -0.96933E-04  8684   0.765E-02    0.404E-01
RMM:  11    -0.409223327482E+03    0.54025E-03   -0.58570E-04  8753   0.617E-02    0.262E-01
RMM:  12    -0.409224083485E+03   -0.75600E-03   -0.35451E-04  8659   0.460E-02    0.259E-01
RMM:  13    -0.409224918634E+03   -0.83515E-03   -0.26531E-04  8755   0.415E-02    0.154E-01
RMM:  14    -0.409226337772E+03   -0.14191E-02   -0.18607E-04  8710   0.335E-02    0.173E-01
RMM:  15    -0.409229481067E+03   -0.31433E-02   -0.22628E-04  8613   0.336E-02    0.143E-01
RMM:  16    -0.409230670859E+03   -0.11898E-02   -0.12768E-04  8744   0.269E-02    0.116E-01
RMM:  17    -0.409233492946E+03   -0.28221E-02   -0.21959E-04  8592   0.293E-02    0.149E-01
RMM:  18    -0.409234813877E+03   -0.13209E-02   -0.13994E-04  8709   0.257E-02    0.629E-02
RMM:  19    -0.409235630426E+03   -0.81655E-03   -0.78067E-05  8744   0.190E-02    0.897E-02
RMM:  20    -0.409236407313E+03   -0.77689E-03   -0.55388E-05  8722   0.162E-02    0.516E-02
RMM:  21    -0.409236584711E+03   -0.17740E-03   -0.30576E-05  8755   0.132E-02    0.524E-02
RMM:  22    -0.409236711933E+03   -0.12722E-03   -0.27935E-05  8677   0.113E-02    0.437E-02
RMM:  23    -0.409236694838E+03    0.17095E-04   -0.11987E-05  8669   0.830E-03    0.173E-02
RMM:  24    -0.409236729896E+03   -0.35058E-04   -0.80682E-06  8105   0.587E-03    0.275E-02
RMM:  25    -0.409236801628E+03   -0.71731E-04   -0.47906E-06  6816   0.493E-03    0.109E-02
RMM:  26    -0.409236843603E+03   -0.41975E-04   -0.23096E-06  5498   0.343E-03    0.170E-02
RMM:  27    -0.409236937392E+03   -0.93788E-04   -0.22129E-06  5462   0.330E-03    0.515E-03
RMM:  28    -0.409236962987E+03   -0.25596E-04   -0.54840E-07  5265   0.168E-03    0.417E-03
RMM:  29    -0.409237006699E+03   -0.43711E-04   -0.41636E-07  5109   0.124E-03    0.357E-03
RMM:  30    -0.409237028013E+03   -0.21314E-04   -0.17556E-07  5065   0.927E-04    0.238E-03
RMM:  31    -0.409237051846E+03   -0.23833E-04   -0.12933E-07  4878   0.650E-04    0.258E-03
RMM:  32    -0.409237075731E+03   -0.23885E-04   -0.11657E-07  4802   0.612E-04    0.151E-03
RMM:  33    -0.409237093467E+03   -0.17736E-04   -0.68091E-08  3927   0.434E-04    0.168E-03
RMM:  34    -0.409237112118E+03   -0.18652E-04   -0.74254E-08  3871   0.419E-04    0.105E-03
RMM:  35    -0.409237126632E+03   -0.14514E-04   -0.55721E-08  2942   0.367E-04    0.115E-03
RMM:  36    -0.409237147273E+03   -0.20641E-04   -0.13084E-07  3593   0.412E-04    0.879E-04
RMM:  37    -0.409237159658E+03   -0.12385E-04   -0.82355E-08  3122   0.368E-04    0.958E-04
RMM:  38    -0.409237179198E+03   -0.19540E-04   -0.25118E-07  3855   0.457E-04    0.709E-04
RMM:  39    -0.409237184741E+03   -0.55427E-05   -0.46052E-08  2452   0.324E-04    0.568E-04
RMM:  40    -0.409237192047E+03   -0.73057E-05   -0.16134E-07  3367   0.393E-04    0.458E-04
RMM:  41    -0.409237193605E+03   -0.15582E-05   -0.23417E-08  2149   0.306E-04    0.314E-04
RMM:  42    -0.409237194710E+03   -0.11050E-05   -0.42877E-08  2283   0.317E-04    0.360E-04
RMM:  43    -0.409237194924E+03   -0.21438E-06   -0.17941E-08  1951   0.291E-04
   1 F= -.42608319E+03 E0= -.42608319E+03  d E =0.000000E+00  mag=    72.8940
