 vasp.5.4.4.18Apr17-6-g9f103f2a35 (build Dec 15 2018 21:27:11) complex          
  
 executed on             LinuxIFC date 2022.03.11  16:00:27
 running on   72 total cores
 distrk:  each k-point on   72 cores,    1 groups
 distr:  one band on NCORES_PER_BAND=  24 cores,    3 groups


--------------------------------------------------------------------------------------------------------


 INCAR:
 POTCAR:    PAW_PBE Ni 02Aug2007                  
 POTCAR:    PAW_PBE Fe 06Sep2000                  
 POTCAR:    PAW_PBE O 08Apr2002                   

 ----------------------------------------------------------------------------- 
|                                                                             |
|           W    W    AA    RRRRR   N    N  II  N    N   GGGG   !!!           |
|           W    W   A  A   R    R  NN   N  II  NN   N  G    G  !!!           |
|           W    W  A    A  R    R  N N  N  II  N N  N  G       !!!           |
|           W WW W  AAAAAA  RRRRR   N  N N  II  N  N N  G  GGG   !            |
|           WW  WW  A    A  R   R   N   NN  II  N   NN  G    G                |
|           W    W  A    A  R    R  N    N  II  N    N   GGGG   !!!           |
|                                                                             |
|      For optimal performance we recommend to set                            |
|        NCORE= 4 - approx SQRT( number of cores)                             |
|      NCORE specifies how many cores store one orbital (NPAR=cpu/NCORE).     |
|      This setting can  greatly improve the performance of VASP for DFT.     |
|      The default,   NCORE=1            might be grossly inefficient         |
|      on modern multi-core architectures or massively parallel machines.     |
|      Do your own testing !!!!                                               |
|      Unfortunately you need to use the default for GW and RPA calculations. |
|      (for HF NCORE is supported but not extensively tested yet)             |
|                                                                             |
 ----------------------------------------------------------------------------- 

 POTCAR:    PAW_PBE Ni 02Aug2007                  
   VRHFIN =Ni:                                                                  
   LEXCH  = PE                                                                  
   EATOM  =  1077.6739 eV,   79.2068 Ry                                         
                                                                                
   TITEL  = PAW_PBE Ni 02Aug2007                                                
   LULTRA =        F    use ultrasoft PP ?                                      
   IUNSCR =        1    unscreen: 0-lin 1-nonlin 2-no                           
   RPACOR =    2.000    partial core radius                                     
   POMASS =   58.690; ZVAL   =   10.000    mass and valenz                      
   RCORE  =    2.300    outmost cutoff radius                                   
   RWIGS  =    2.430; RWIGS  =    1.286    wigner-seitz radius (au A)           
   ENMAX  =  269.532; ENMIN  =  202.149 eV                                      
   RCLOC  =    1.201    cutoff for local pot                                    
   LCOR   =        T    correct aug charges                                     
   LPAW   =        T    paw PP                                                  
   EAUG   =  544.565                                                            
   DEXC   =    0.000                                                            
   RMAX   =    2.357    core radius for proj-oper                               
   RAUG   =    1.300    factor for augmentation sphere                          
   RDEP   =    2.390    radius for radial grids                                 
   RDEPT  =    1.838    core radius for aug-charge                              
                                                                                
   Atomic configuration                                                         
    9 entries                                                                   
     n  l   j            E        occ.                                          
     1  0  0.50     -8206.4253   2.0000                                         
     2  0  0.50      -976.1748   2.0000                                         
     2  1  1.50      -839.0571   6.0000                                         
     3  0  0.50      -105.9991   2.0000                                         
     3  1  1.50       -66.4603   6.0000                                         
     3  2  2.50        -4.6458   9.0000                                         
     4  0  0.50        -4.4926   1.0000                                         
     4  1  1.50        -4.0817   0.0000                                         
     4  3  2.50        -1.3606   0.0000                                         
   Description                                                                  
     l       E           TYP  RCUT    TYP  RCUT                                 
     2     -4.6457903     23  2.300                                             
     2     -6.0063729     23  2.300                                             
     0     -4.4925590     23  2.300                                             
     0      5.0102601     23  2.300                                             
     1     -2.7211652     23  2.300                                             
     1     16.5183231     23  2.300                                             
  local pseudopotential read in
  partial core-charges read in
  partial kinetic energy density read in
  atomic valenz-charges read in
  non local Contribution for L=           2  read in
    real space projection operators read in
  non local Contribution for L=           2  read in
    real space projection operators read in
  non local Contribution for L=           0  read in
    real space projection operators read in
  non local Contribution for L=           0  read in
    real space projection operators read in
  non local Contribution for L=           1  read in
    real space projection operators read in
  non local Contribution for L=           1  read in
    real space projection operators read in
    PAW grid and wavefunctions read in
 
   number of l-projection  operators is LMAX  =           6
   number of lm-projection operators is LMMAX =          18
 
 POTCAR:    PAW_PBE Fe 06Sep2000                  
   VRHFIN =Fe:  d7 s1                                                           
   LEXCH  = PE                                                                  
   EATOM  =   594.3153 eV,   43.6809 Ry                                         
                                                                                
   TITEL  = PAW_PBE Fe 06Sep2000                                                
   LULTRA =        F    use ultrasoft PP ?                                      
   IUNSCR =        1    unscreen: 0-lin 1-nonlin 2-no                           
   RPACOR =    2.000    partial core radius                                     
   POMASS =   55.847; ZVAL   =    8.000    mass and valenz                      
   RCORE  =    2.300    outmost cutoff radius                                   
   RWIGS  =    2.460; RWIGS  =    1.302    wigner-seitz radius (au A)           
   ENMAX  =  267.882; ENMIN  =  200.911 eV                                      
   RCLOC  =    1.701    cutoff for local pot                                    
   LCOR   =        T    correct aug charges                                     
   LPAW   =        T    paw PP                                                  
   EAUG   =  511.368                                                            
   DEXC   =    0.000                                                            
   RMAX   =    2.356    core radius for proj-oper                               
   RAUG   =    1.300    factor for augmentation sphere                          
   RDEP   =    2.442    radius for radial grids                                 
   RDEPT  =    1.890    core radius for aug-charge                              
                                                                                
   Atomic configuration                                                         
    9 entries                                                                   
     n  l   j            E        occ.                                          
     1  0  0.50     -6993.8440   2.0000                                         
     2  0  0.50      -814.6047   2.0000                                         
     2  1  1.50      -693.3689   6.0000                                         
     3  0  0.50       -89.4732   2.0000                                         
     3  1  1.50       -55.6373   6.0000                                         
     3  2  2.50        -3.8151   7.0000                                         
     4  0  0.50        -4.2551   1.0000                                         
     4  1  1.50        -3.4015   0.0000                                         
     4  3  2.50        -1.3606   0.0000                                         
   Description                                                                  
     l       E           TYP  RCUT    TYP  RCUT                                 
     2     -3.8151135     23  2.300                                             
     2     -5.1756961     23  2.300                                             
     0     -4.2550963     23  2.300                                             
     0      7.2035603     23  2.300                                             
     1     -2.7211652     23  2.300                                             
     1     18.4316424     23  2.300                                             
  local pseudopotential read in
  partial core-charges read in
  partial kinetic energy density read in
  atomic valenz-charges read in
  non local Contribution for L=           2  read in
    real space projection operators read in
  non local Contribution for L=           2  read in
    real space projection operators read in
  non local Contribution for L=           0  read in
    real space projection operators read in
  non local Contribution for L=           0  read in
    real space projection operators read in
  non local Contribution for L=           1  read in
    real space projection operators read in
  non local Contribution for L=           1  read in
    real space projection operators read in
    PAW grid and wavefunctions read in
 
   number of l-projection  operators is LMAX  =           6
   number of lm-projection operators is LMMAX =          18
 
 POTCAR:    PAW_PBE O 08Apr2002                   
   VRHFIN =O: s2p4                                                              
   LEXCH  = PE                                                                  
   EATOM  =   432.3788 eV,   31.7789 Ry                                         
                                                                                
   TITEL  = PAW_PBE O 08Apr2002                                                 
   LULTRA =        F    use ultrasoft PP ?                                      
   IUNSCR =        1    unscreen: 0-lin 1-nonlin 2-no                           
   RPACOR =    1.200    partial core radius                                     
   POMASS =   16.000; ZVAL   =    6.000    mass and valenz                      
   RCORE  =    1.520    outmost cutoff radius                                   
   RWIGS  =    1.550; RWIGS  =    0.820    wigner-seitz radius (au A)           
   ENMAX  =  400.000; ENMIN  =  300.000 eV                                      
   ICORE  =        2    local potential                                         
   LCOR   =        T    correct aug charges                                     
   LPAW   =        T    paw PP                                                  
   EAUG   =  605.392                                                            
   DEXC   =    0.000                                                            
   RMAX   =    1.553    core radius for proj-oper                               
   RAUG   =    1.300    factor for augmentation sphere                          
   RDEP   =    1.550    radius for radial grids                                 
   RDEPT  =    1.329    core radius for aug-charge                              
                                                                                
   Atomic configuration                                                         
    4 entries                                                                   
     n  l   j            E        occ.                                          
     1  0  0.50      -514.6923   2.0000                                         
     2  0  0.50       -23.9615   2.0000                                         
     2  1  0.50        -9.0305   4.0000                                         
     3  2  1.50        -9.5241   0.0000                                         
   Description                                                                  
     l       E           TYP  RCUT    TYP  RCUT                                 
     0    -23.9615318     23  1.200                                             
     0     -9.5240782     23  1.200                                             
     1     -9.0304911     23  1.520                                             
     1      8.1634956     23  1.520                                             
     2     -9.5240782      7  1.500                                             
  local pseudopotential read in
  partial core-charges read in
  partial kinetic energy density read in
  kinetic energy density of atom read in
  atomic valenz-charges read in
  non local Contribution for L=           0  read in
    real space projection operators read in
  non local Contribution for L=           0  read in
    real space projection operators read in
  non local Contribution for L=           1  read in
    real space projection operators read in
  non local Contribution for L=           1  read in
    real space projection operators read in
    PAW grid and wavefunctions read in
 
   number of l-projection  operators is LMAX  =           4
   number of lm-projection operators is LMMAX =           8
 
 Optimization of the real space projectors (new method)

 maximal supplied QI-value         = 16.25
 optimisation between [QCUT,QGAM] = [ 11.54, 23.24] = [ 37.28,151.24] Ry 
 Optimized for a Real-space Cutoff    1.45 Angstroem

   l    n(q)    QCUT    max X(q) W(low)/X(q) W(high)/X(q)  e(spline) 
   2      9    11.539    60.317    0.19E-03    0.47E-04    0.16E-06
   2      9    11.539    55.921    0.19E-03    0.48E-04    0.16E-06
   0     10    11.539    51.690    0.80E-04    0.50E-04    0.24E-06
   0     10    11.539    30.015    0.73E-04    0.45E-04    0.22E-06
   1     10    11.539    18.849    0.87E-04    0.16E-03    0.71E-07
   1     10    11.539    14.624    0.73E-04    0.13E-03    0.64E-07
 Optimization of the real space projectors (new method)

 maximal supplied QI-value         = 16.25
 optimisation between [QCUT,QGAM] = [ 11.54, 23.24] = [ 37.28,151.24] Ry 
 Optimized for a Real-space Cutoff    1.53 Angstroem

   l    n(q)    QCUT    max X(q) W(low)/X(q) W(high)/X(q)  e(spline) 
   2     10    11.539    80.901    0.11E-03    0.14E-03    0.21E-06
   2     10    11.539    75.754    0.11E-03    0.14E-03    0.22E-06
   0     11    11.539    58.752    0.52E-04    0.18E-04    0.33E-06
   0     11    11.539    30.679    0.44E-04    0.16E-04    0.30E-06
   1     10    11.539    17.977    0.53E-04    0.29E-04    0.13E-06
   1     10    11.539    13.559    0.44E-04    0.25E-04    0.11E-06
 Optimization of the real space projectors (new method)

 maximal supplied QI-value         = 24.76
 optimisation between [QCUT,QGAM] = [ 11.64, 23.27] = [ 37.91,151.63] Ry 
 Optimized for a Real-space Cutoff    1.14 Angstroem

   l    n(q)    QCUT    max X(q) W(low)/X(q) W(high)/X(q)  e(spline) 
   0      8    11.635    20.381    0.10E-03    0.33E-03    0.24E-06
   0      8    11.635    15.268    0.11E-03    0.35E-03    0.26E-06
   1      7    11.635     5.964    0.24E-03    0.31E-03    0.30E-06
   1      7    11.635     5.382    0.22E-03    0.25E-03    0.26E-06
  PAW_PBE Ni 02Aug2007                  :
 energy of atom  1       EATOM=-1077.6739
 kinetic energy error for atom=    0.0030 (will be added to EATOM!!)
  PAW_PBE Fe 06Sep2000                  :
 energy of atom  2       EATOM= -594.3153
 kinetic energy error for atom=    0.0026 (will be added to EATOM!!)
  PAW_PBE O 08Apr2002                   :
 energy of atom  3       EATOM= -432.3788
 kinetic energy error for atom=    0.0208 (will be added to EATOM!!)
 
 
 POSCAR: POSCAR                                  
  positions in direct lattice
  velocities in cartesian coordinates
 exchange correlation table for  LEXCH =        8
   RHO(1)=    0.500       N(1)  =     2000
   RHO(2)=  100.500       N(2)  =     4000

 VTST: version 3.2, (02/03/18)

 CHAIN: initializing optimizer
 
 OPT: Using VASP Dynamics algorithm
 CHAIN: Read ICHAIN            0
 
 POSCAR: POSCAR                                  
  positions in direct lattice
  velocities in cartesian coordinates
 


--------------------------------------------------------------------------------------------------------


 ion  position               nearest neighbor table
   1  0.999  0.001  0.287-  47 2.46  18 2.47  50 2.48  41 2.48   8 2.49  49 2.49   5 2.49  26 2.50
                             2 2.50  33 2.50   4 2.52   6 2.53
   2  0.250  0.002  0.285-  11 2.45  51 2.45  44 2.46  50 2.46   3 2.50   1 2.50   6 2.50  26 2.51
                             9 2.51  27 2.53  41 2.54  43 2.54
   3  0.497  0.999  0.287-  64 2.43  14 2.44  51 2.44  17 2.47  45 2.47  43 2.48  27 2.49   2 2.50
                             4 2.51   9 2.52  12 2.54  30 2.54
   4  0.748  0.999  0.286-  16 2.43  17 2.45  48 2.45  18 2.47  30 2.49  64 2.49   3 2.51   5 2.51
                             1 2.52  33 2.52  12 2.52  47 2.52
   5  0.999  0.249  0.287-  60 2.43  16 2.43  18 2.48  22 2.48   1 2.49  52 2.51  12 2.51   4 2.51
                            21 2.51   6 2.51  19 2.52   8 2.53
   6  0.252  0.253  0.287-  11 2.42  56 2.46  52 2.47  22 2.48   9 2.50   2 2.50   5 2.51  50 2.52
                             1 2.53  53 2.54  55 2.54   8 2.55
   7  0.083  0.166  0.096-  50 2.47  15 2.50  40 2.50  18 2.50  54 2.50  10 2.50  46 2.51  22 2.51
                            20 2.51
   8  0.080  0.161  0.385-  67 1.85  47 2.40  41 2.43   1 2.49  11 2.50  16 2.51  55 2.52   5 2.53
                             6 2.55  21 2.57
   9  0.500  0.252  0.287-  11 2.43  59 2.45  56 2.46  53 2.48   6 2.50  12 2.51  14 2.51   2 2.51
                            23 2.52   3 2.52  51 2.53  25 2.64
  10  0.333  0.167  0.096-  13 2.50  56 2.50   7 2.50  24 2.51  40 2.51  42 2.51  50 2.51  54 2.52
                            51 2.52
  11  0.332  0.167  0.379-   6 2.42   9 2.43   2 2.45  55 2.48  25 2.49  41 2.50   8 2.50  14 2.51
                            43 2.52
  12  0.750  0.252  0.287-  59 2.43  16 2.43  60 2.44  58 2.46  17 2.49  23 2.50   9 2.51   5 2.51
                            14 2.51  19 2.52   4 2.52   3 2.54
  13  0.582  0.167  0.097-  51 2.48  24 2.49  42 2.50  17 2.50  10 2.50  63 2.52  59 2.52  57 2.52
                            15 2.53
  14  0.576  0.155  0.382-  65 1.82  64 2.39  43 2.41   3 2.44   9 2.51  16 2.51  11 2.51  12 2.51
                            25 2.59  58 2.61
  15  0.834  0.167  0.096-  20 2.49  60 2.49  18 2.49  46 2.49   7 2.50  17 2.51  63 2.51  57 2.53
                            13 2.53
  16  0.831  0.164  0.379-  12 2.43   5 2.43   4 2.43  47 2.46  58 2.47   8 2.51  64 2.51  14 2.51
                            21 2.51
  17  0.666  0.083  0.193-   4 2.45   3 2.47  60 2.47  51 2.48  12 2.49  59 2.49  13 2.50  45 2.50
                            48 2.51  15 2.51  63 2.51  18 2.52
  18  0.916  0.082  0.192-  50 2.46  60 2.47   1 2.47   4 2.47   5 2.48  46 2.48  15 2.49  49 2.50
                            48 2.50   7 2.50  22 2.51  17 2.52
  19  0.003  0.502  0.286-  60 2.47  29 2.47  27 2.48  39 2.48  52 2.49  21 2.49  58 2.50  61 2.50
                            23 2.52   5 2.52  12 2.52  26 2.52
  20  0.081  0.416  0.096-  61 2.48  15 2.49  57 2.49  22 2.50  54 2.51  28 2.51   7 2.51  31 2.52
                            60 2.53
  21  0.079  0.417  0.383-  67 1.85  58 2.39  29 2.45  19 2.49  32 2.51   5 2.51  16 2.51  52 2.52
                            55 2.54   8 2.57
  22  0.166  0.334  0.192-  52 2.47   5 2.48   6 2.48  60 2.49  54 2.49  36 2.50  20 2.50  50 2.50
                             7 2.51  18 2.51  56 2.52  61 2.54
  23  0.752  0.502  0.288-  53 2.46  59 2.47  33 2.49  26 2.50  38 2.50  12 2.50  39 2.50  19 2.52
                            58 2.52   9 2.52  62 2.54  25 2.69
  24  0.584  0.416  0.096-  13 2.49  62 2.49  57 2.50  10 2.51  56 2.51  34 2.51  37 2.52  54 2.53
                            59 2.54
  25  0.579  0.414  0.393-  69 1.82  65 1.91  55 2.49  11 2.49  35 2.51  53 2.58  38 2.58  14 2.59
                            58 2.61   9 2.64  23 2.69
  26  0.000  0.752  0.287-  49 2.46  44 2.48  33 2.49  38 2.49  23 2.50   1 2.50  39 2.51   2 2.51
                            27 2.51  29 2.51  41 2.51  19 2.52
  27  0.249  0.749  0.285-  32 2.45  45 2.45  61 2.46  44 2.47  19 2.48   3 2.49  26 2.51  52 2.52
                            29 2.52  43 2.53   2 2.53  30 2.54
  28  0.084  0.668  0.095-  61 2.47  39 2.50  40 2.50  37 2.50  31 2.50  42 2.50  57 2.51  44 2.51
                            20 2.51
  29  0.081  0.662  0.382-  66 1.84  21 2.45  58 2.47  19 2.47  38 2.48  32 2.50  26 2.51  27 2.52
                            43 2.54  41 2.57
  30  0.502  0.748  0.288-  32 2.43  64 2.45  48 2.47  53 2.49   4 2.49  33 2.49  45 2.50  36 2.51
                            52 2.52   3 2.54  27 2.54  35 2.61
  31  0.333  0.667  0.094-  61 2.47  42 2.50  54 2.50  28 2.50  63 2.50  34 2.51  36 2.52  45 2.52
                            20 2.52
  32  0.332  0.664  0.378-  52 2.41  30 2.43  27 2.45  35 2.48  64 2.50  29 2.50  21 2.51  55 2.52
                            43 2.52
  33  0.751  0.750  0.287-  53 2.46  49 2.47  48 2.48  62 2.48  23 2.49  26 2.49  30 2.49   1 2.50
                            38 2.51   4 2.52  47 2.54  35 2.69
  34  0.583  0.667  0.095-  62 2.47  36 2.50  63 2.50  46 2.51  31 2.51  37 2.51  54 2.51  24 2.51
                            48 2.53
  35  0.577  0.663  0.392-  69 1.83  68 1.91  32 2.48  55 2.49  25 2.51  53 2.56  64 2.56  38 2.59
                            30 2.61  47 2.62  33 2.69
  36  0.417  0.582  0.191-  54 2.47  22 2.50  34 2.50  62 2.50  45 2.51  30 2.51  52 2.51  56 2.51
                            48 2.51  61 2.51  31 2.52  53 2.58
  37  0.834  0.668  0.095-  62 2.47  40 2.50  57 2.50  39 2.50  28 2.50  46 2.51  49 2.51  34 2.51
                            24 2.52
  38  0.838  0.669  0.384-  69 1.81  29 2.48  41 2.48  26 2.49  23 2.50  33 2.51  47 2.54  58 2.56
                            25 2.58  35 2.59
  39  0.917  0.583  0.191-  19 2.48  57 2.49  28 2.50  37 2.50  23 2.50  61 2.50  26 2.51  49 2.51
                            59 2.51  62 2.51  44 2.51  60 2.56
  40  0.083  0.917  0.095-  50 2.49  44 2.49  37 2.50  28 2.50   7 2.50  10 2.51  49 2.51  46 2.51
                            42 2.52
  41  0.082  0.920  0.383-  66 1.83   8 2.43  47 2.45   1 2.48  38 2.48  11 2.50  26 2.51   2 2.54
                            43 2.54  29 2.57
  42  0.334  0.917  0.095-  51 2.48  13 2.50  63 2.50  31 2.50  44 2.50  28 2.50  10 2.51  45 2.51
                            40 2.52
  43  0.334  0.917  0.383-  66 1.83  14 2.41  64 2.43   3 2.48  32 2.52  11 2.52  27 2.53   2 2.54
                            41 2.54  29 2.54
  44  0.167  0.835  0.191-   2 2.46  27 2.47  51 2.47  26 2.48  61 2.49  49 2.49  40 2.49  42 2.50
                            50 2.50  28 2.51  39 2.51  45 2.53
  45  0.417  0.832  0.192-  27 2.45  61 2.47  51 2.47   3 2.47  48 2.49  63 2.50  30 2.50  17 2.50
                            36 2.51  42 2.51  31 2.52  44 2.53
  46  0.832  0.917  0.096-  18 2.48  48 2.49  15 2.49  63 2.50  49 2.50   7 2.51  34 2.51  37 2.51
                            40 2.51
  47  0.839  0.923  0.383-  68 1.85   8 2.40  41 2.45   1 2.46  16 2.46   4 2.52  33 2.54  38 2.54
                            64 2.60  35 2.62
  48  0.666  0.833  0.192-   4 2.45  62 2.47  30 2.47  33 2.48  45 2.49  46 2.49  18 2.50  63 2.50
                            17 2.51  36 2.51  49 2.52  34 2.53
  49  0.917  0.833  0.192-  26 2.46  62 2.46  33 2.47  50 2.47   1 2.49  44 2.49  18 2.50  46 2.50
                            39 2.51  40 2.51  37 2.51  48 2.52
  50  0.162  0.082  0.191-  18 2.46   2 2.46   7 2.47  49 2.47   1 2.48  40 2.49  44 2.50  22 2.50
                            10 2.51   6 2.52  56 2.53  51 2.57
  51  0.416  0.078  0.192-   3 2.44   2 2.45  44 2.47  45 2.47  42 2.48  17 2.48  13 2.48  10 2.52
                             9 2.53  59 2.54  56 2.54  50 2.57
  52  0.249  0.499  0.287-  32 2.41  22 2.47   6 2.47  19 2.49   5 2.51  36 2.51  27 2.52  21 2.52
                            30 2.52  61 2.55  53 2.57  55 2.57
  53  0.507  0.503  0.291-  33 2.46  23 2.46   9 2.48  30 2.49   6 2.54  35 2.56  55 2.56  56 2.56
                            62 2.56  52 2.57  25 2.58  36 2.58
  54  0.331  0.417  0.096-  36 2.47  22 2.49  31 2.50   7 2.50  20 2.51  34 2.51  10 2.52  56 2.53
                            24 2.53
  55  0.330  0.413  0.388-  67 1.84  11 2.48  25 2.49  35 2.49  32 2.52   8 2.52   6 2.54  21 2.54
                            53 2.56  52 2.57
  56  0.416  0.331  0.193-   9 2.46   6 2.46  10 2.50  24 2.51  36 2.51  59 2.51  22 2.52  50 2.53
                            54 2.53  51 2.54  53 2.56  62 2.56
  57  0.834  0.418  0.094-  20 2.49  39 2.49  24 2.50  37 2.50  28 2.51  13 2.52  15 2.53  59 2.56
                            60 2.59
  58  0.838  0.414  0.382-  65 1.83  21 2.39  12 2.46  29 2.47  16 2.47  19 2.50  23 2.52  38 2.56
                            14 2.61  25 2.61
  59  0.667  0.332  0.194-  12 2.43   9 2.45  23 2.47  17 2.49  60 2.51  39 2.51  56 2.51  13 2.52
                            51 2.54  24 2.54  57 2.56  62 2.57
  60  0.914  0.327  0.194-   5 2.43  12 2.44  18 2.47  19 2.47  17 2.47  22 2.49  15 2.49  59 2.51
                            20 2.53  39 2.56  57 2.59  61 2.59
  61  0.169  0.588  0.189-  27 2.46  45 2.47  28 2.47  31 2.47  20 2.48  44 2.49  39 2.50  19 2.50
                            36 2.51  22 2.54  52 2.55  60 2.59
  62  0.670  0.589  0.190-  49 2.46  48 2.47  37 2.47  34 2.47  33 2.48  24 2.49  36 2.50  39 2.51
                            23 2.54  56 2.56  53 2.56  59 2.57
  63  0.583  0.917  0.096-  46 2.50  45 2.50  42 2.50  48 2.50  31 2.50  34 2.50  17 2.51  15 2.51
                            13 2.52
  64  0.577  0.917  0.380-  68 1.79  14 2.39   3 2.43  43 2.43  30 2.45   4 2.49  32 2.50  16 2.51
                            35 2.56  47 2.60
  65  0.675  0.316  0.436-  14 1.82  58 1.83  25 1.91
  66  0.165  0.832  0.434-  43 1.83  41 1.83  29 1.84
  67  0.158  0.330  0.438-  55 1.84  21 1.85   8 1.85
  68  0.670  0.856  0.436-  64 1.79  47 1.85  35 1.91
  69  0.680  0.590  0.439-  38 1.81  25 1.82  35 1.83
 

IMPORTANT INFORMATION: All symmetrisations will be switched off!
NOSYMM: (Re-)initialisation of all symmetry stuff for point group C_1.

 
 

Automatic generation of k-mesh.
 generate k-points for:    3    3    1
Space group operators:
 irot       det(A)        alpha          n_x          n_y          n_z        tau_x        tau_y        tau_z
    1     1.000000     0.000000     1.000000     0.000000     0.000000     0.000000     0.000000     0.000000
 
 Subroutine IBZKPT returns following result:
 ===========================================
 
 Found      5 irreducible k-points:
 
 Following reciprocal coordinates:
            Coordinates               Weight
  0.000000  0.000000  0.000000      1.000000
  0.333333  0.000000  0.000000      2.000000
  0.000000  0.333333  0.000000      2.000000
  0.333333  0.333333  0.000000      2.000000
 -0.333333  0.333333  0.000000      2.000000
 
 Following cartesian coordinates:
            Coordinates               Weight
  0.000000  0.000000  0.000000      1.000000
  0.033244  0.019194  0.000000      2.000000
  0.000000  0.038387  0.000000      2.000000
  0.033244  0.057581  0.000000      2.000000
 -0.033244  0.019194  0.000000      2.000000
 
 TETIRR: Found     24 inequivalent tetrahedra from       54


--------------------------------------------------------------------------------------------------------




 Dimension of arrays:
   k-points           NKPTS =      5   k-points in BZ     NKDIM =      5   number of bands    NBANDS=    420
   number of dos      NEDOS =    301   number of ions     NIONS =     69
   non local maximal  LDIM  =      6   non local SUM 2l+1 LMDIM =     18
   total plane-waves  NPLWV = ******
   max r-space proj   IRMAX =   8439   max aug-charges    IRDMAX=  19969
   dimension x,y,z NGX =    80 NGY =   80 NGZ =  160
   dimension x,y,z NGXF=   160 NGYF=  160 NGZF=  320
   support grid    NGXF=   160 NGYF=  160 NGZF=  320
   ions per type =              49  15   5
   NGX,Y,Z   is equivalent  to a cutoff of  13.26, 13.26, 12.55 a.u.
   NGXF,Y,Z  is equivalent  to a cutoff of  26.53, 26.53, 25.11 a.u.

 SYSTEM =  SQS-NiFe                                
 POSCAR =  POSCAR                                  

 Startparameter for this run:
   NWRITE =      2    write-flag & timer
   PREC   = accura    normal or accurate (medium, high low for compatibility)
   ISTART =      1    job   : 0-new  1-cont  2-samecut
   ICHARG =      1    charge: 1-file 2-atom 10-const
   ISPIN  =      2    spin polarized calculation?
   LNONCOLLINEAR =      F non collinear calculations
   LSORBIT =      F    spin-orbit coupling
   INIWAV =      1    electr: 0-lowe 1-rand  2-diag
   LASPH  =      F    aspherical Exc in radial PAW
   METAGGA=      F    non-selfconsistent MetaGGA calc.

 Electronic Relaxation 1
   ENCUT  =  520.0 eV  38.22 Ry    6.18 a.u.  18.64 18.64 39.40*2*pi/ulx,y,z
   ENINI  =  520.0     initial cutoff
   ENAUG  =  605.4 eV  augmentation charge cutoff
   NELM   =    200;   NELMIN=  2; NELMDL=  0     # of ELM steps 
   EDIFF  = 0.1E-05   stopping-criterion for ELM
   LREAL  =      T    real-space projection
   NLSPLINE    = F    spline interpolate recip. space projectors
   LCOMPAT=      F    compatible to vasp.4.4
   GGA_COMPAT  = T    GGA compatible to vasp.4.4-vasp.4.6
   LMAXPAW     = -100 max onsite density
   LMAXMIX     =    2 max onsite mixed and CHGCAR
   VOSKOWN=      0    Vosko Wilk Nusair interpolation
   ROPT   =   -0.00025  -0.00025  -0.00025
 Ionic relaxation
   EDIFFG = -.2E-01   stopping-criterion for IOM
   NSW    =      0    number of steps for IOM
   NBLOCK =      1;   KBLOCK =      1    inner block; outer block 
   IBRION =     -1    ionic relax: 0-MD 1-quasi-New 2-CG
   NFREE  =      0    steps in history (QN), initial steepest desc. (CG)
   ISIF   =      2    stress and relaxation
   IWAVPR =     10    prediction:  0-non 1-charg 2-wave 3-comb
   ISYM   =      0    0-nonsym 1-usesym 2-fastsym
   LCORR  =      T    Harris-Foulkes like correction to forces

   POTIM  = 0.5000    time-step for ionic-motion
   TEIN   =    0.0    initial temperature
   TEBEG  =    0.0;   TEEND  =   0.0 temperature during run
   SMASS  =  -3.00    Nose mass-parameter (am)
   estimated Nose-frequenzy (Omega)   =  0.10E-29 period in steps =****** mass=  -0.230E-26a.u.
   SCALEE = 1.0000    scale energy and forces
   NPACO  =    256;   APACO  = 16.0  distance and # of slots for P.C.
   PSTRESS=    0.0 pullay stress

  Mass of Ions in am
   POMASS =  58.69 55.85 16.00
  Ionic Valenz
   ZVAL   =  10.00  8.00  6.00
  Atomic Wigner-Seitz radii
   RWIGS  =  -1.00 -1.00 -1.00
  virtual crystal weights 
   VCA    =   1.00  1.00  1.00
   NELECT =     640.0000    total number of electrons
   NUPDOWN=      -1.0000    fix difference up-down

 DOS related values:
   EMIN   =  10.00;   EMAX   =-10.00  energy-range for DOS
   EFERMI =   0.00
   ISMEAR =    -5;   SIGMA  =   0.20  broadening in eV -4-tet -1-fermi 0-gaus

 Electronic relaxation 2 (details)
   IALGO  =     68    algorithm
   LDIAG  =      T    sub-space diagonalisation (order eigenvalues)
   LSUBROT=      F    optimize rotation matrix (better conditioning)
   TURBO    =      0    0=normal 1=particle mesh
   IRESTART =      0    0=no restart 2=restart with 2 vectors
   NREBOOT  =      0    no. of reboots
   NMIN     =      0    reboot dimension
   EREF     =   0.00    reference energy to select bands
   IMIX   =      4    mixing-type and parameters
     AMIX     =   0.40;   BMIX     =  1.00
     AMIX_MAG =   1.60;   BMIX_MAG =  1.00
     AMIN     =   0.10
     WC   =   100.;   INIMIX=   1;  MIXPRE=   1;  MAXMIX= -45

 Intra band minimization:
   WEIMIN = 0.0000     energy-eigenvalue tresh-hold
   EBREAK =  0.60E-09  absolut break condition
   DEPER  =   0.30     relativ break condition  

   TIME   =   0.40     timestep for ELM

  volume/ion in A,a.u.               =      26.74       180.43
  Fermi-wavevector in a.u.,A,eV,Ry     =   1.150304  2.173759 18.003211  1.323199
  Thomas-Fermi vector in A             =   2.286968
 
 Write flags
   LWAVE        =      T    write WAVECAR
   LDOWNSAMPLE  =      F    k-point downsampling of WAVECAR
   LCHARG       =      T    write CHGCAR
   LVTOT        =      F    write LOCPOT, total local potential
   LVHAR        =      F    write LOCPOT, Hartree potential only
   LELF         =      F    write electronic localiz. function (ELF)
   LORBIT       =     11    0 simple, 1 ext, 2 COOP (PROOUT), +10 PAW based schemes


 Dipole corrections
   LMONO  =      F    monopole corrections only (constant potential shift)
   LDIPOL =      T    correct potential (dipole corrections)
   IDIPOL =      3    1-x, 2-y, 3-z, 4-all directions 
   EPSILON=  1.0000000 bulk dielectric constant

 Exchange correlation treatment:
   GGA     =    --    GGA type
   LEXCH   =     8    internal setting for exchange type
   VOSKOWN=      0    Vosko Wilk Nusair interpolation
   LHFCALC =     F    Hartree Fock is set to
   LHFONE  =     F    Hartree Fock one center treatment
   AEXX    =    0.0000 exact exchange contribution

 Linear response parameters
   LEPSILON=     F    determine dielectric tensor
   LRPA    =     F    only Hartree local field effects (RPA)
   LNABLA  =     F    use nabla operator in PAW spheres
   LVEL    =     F    velocity operator in full k-point grid
   LINTERFAST=   F  fast interpolation
   KINTER  =     0    interpolate to denser k-point grid
   CSHIFT  =0.1000    complex shift for real part using Kramers Kronig
   OMEGAMAX=  -1.0    maximum frequency
   DEG_THRESHOLD= 0.2000000E-02 threshold for treating states as degnerate
   RTIME   =   -0.100 relaxation time in fs
  (WPLASMAI=    0.000 imaginary part of plasma frequency in eV, 0.658/RTIME)
   DFIELD  = 0.0000000 0.0000000 0.0000000 field for delta impulse in time
 
 Orbital magnetization related:
   ORBITALMAG=     F  switch on orbital magnetization
   LCHIMAG   =     F  perturbation theory with respect to B field
   DQ        =  0.001000  dq finite difference perturbation B field
   LLRAUG    =     F  two centre corrections for induced B field



--------------------------------------------------------------------------------------------------------


 Static calculation
 charge density and potential will be updated during run
 spin polarized calculation
 RMM-DIIS sequential band-by-band and
  variant of blocked Davidson during initial phase
 perform sub-space diagonalisation
    before iterative eigenvector-optimisation
 modified Broyden-mixing scheme, WC =      100.0
 initial mixing is a Kerker type mixing with AMIX =  0.4000 and BMIX =      1.0000
 Hartree-type preconditioning will be used
 using additional bands          100
 real space projection scheme for non local part
 use partial core corrections
 calculate Harris-corrections to forces 
   (improved forces if not selfconsistent)
 use gradient corrections 
 use of overlap-Matrix (Vanderbilt PP)
 Fermi weights with tetrahedron method with Bloechl corrections


--------------------------------------------------------------------------------------------------------


  energy-cutoff  :      520.00
  volume of cell :     1844.87
      direct lattice vectors                 reciprocal lattice vectors
    10.026770000  0.000000000  0.000000000     0.099733015  0.057580883  0.000000000
    -5.013385000  8.683437540  0.000000000     0.000000000  0.115161766  0.000000000
     0.000000000  0.000000000 21.189180000     0.000000000  0.000000000  0.047193898

  length of vectors
    10.026770000 10.026770002 21.189180000     0.115161766  0.115161766  0.047193898


 
 old parameters found on file WAVECAR:
  energy-cutoff  :      520.00
  volume of cell :     1844.87
      direct lattice vectors                 reciprocal lattice vectors
    10.026770000  0.000000000  0.000000000     0.099733015  0.057580883  0.000000000
    -5.013385000  8.683437540  0.000000000     0.000000000  0.115161766  0.000000000
     0.000000000  0.000000000 21.189180000     0.000000000  0.000000000  0.047193898

  length of vectors

 
 k-points in units of 2pi/SCALE and weight: read from INCAR                         
   0.00000000  0.00000000  0.00000000       0.111
   0.03324434  0.01919363  0.00000000       0.222
   0.00000000  0.03838726  0.00000000       0.222
   0.03324434  0.05758088  0.00000000       0.222
  -0.03324434  0.01919363  0.00000000       0.222
 
 k-points in reciprocal lattice and weights: read from INCAR                         
   0.00000000  0.00000000  0.00000000       0.111
   0.33333333  0.00000000  0.00000000       0.222
   0.00000000  0.33333333  0.00000000       0.222
   0.33333333  0.33333333  0.00000000       0.222
  -0.33333333  0.33333333  0.00000000       0.222
 
 position of ions in fractional coordinates (direct lattice) 
   0.99929909  0.00071134  0.28735298
   0.24955745  0.00231494  0.28509468
   0.49715880  0.99891699  0.28655024
   0.74753058  0.99898702  0.28599311
   0.99891318  0.24864550  0.28695946
   0.25188766  0.25315347  0.28731185
   0.08288200  0.16633200  0.09567600
   0.07962878  0.16106689  0.38453232
   0.50014492  0.25192249  0.28742720
   0.33293900  0.16685800  0.09574200
   0.33186111  0.16741013  0.37890080
   0.74999470  0.25176969  0.28733873
   0.58230700  0.16720100  0.09670300
   0.57605376  0.15505327  0.38206717
   0.83403200  0.16672400  0.09645100
   0.83091760  0.16384787  0.37893373
   0.66558100  0.08305500  0.19258300
   0.91639700  0.08203100  0.19204900
   0.00264460  0.50151041  0.28589976
   0.08092200  0.41609700  0.09594800
   0.07874845  0.41702167  0.38345305
   0.16611800  0.33395200  0.19207500
   0.75216180  0.50215761  0.28762418
   0.58357300  0.41617200  0.09593300
   0.57895766  0.41400240  0.39310302
   0.00040186  0.75178651  0.28673842
   0.24912474  0.74939490  0.28517936
   0.08375800  0.66810400  0.09479700
   0.08141163  0.66243934  0.38226824
   0.50204067  0.74838249  0.28754903
   0.33297400  0.66727700  0.09438800
   0.33167732  0.66430417  0.37836731
   0.75119702  0.74965139  0.28688358
   0.58298100  0.66668200  0.09450900
   0.57716562  0.66323198  0.39200385
   0.41661000  0.58200200  0.19081700
   0.83395900  0.66770600  0.09497900
   0.83772653  0.66893419  0.38365737
   0.91708300  0.58323900  0.19079400
   0.08291700  0.91685800  0.09518600
   0.08205984  0.91955408  0.38310539
   0.33420600  0.91705400  0.09538200
   0.33406443  0.91688852  0.38260056
   0.16670900  0.83524200  0.19136500
   0.41703500  0.83214900  0.19205900
   0.83233100  0.91715000  0.09633700
   0.83930735  0.92284330  0.38320941
   0.66623900  0.83337000  0.19234100
   0.91705900  0.83319500  0.19216200
   0.16168500  0.08211500  0.19130600
   0.41607500  0.07807100  0.19177300
   0.24921880  0.49862604  0.28739685
   0.50734475  0.50311692  0.29088780
   0.33134100  0.41714300  0.09577600
   0.33033062  0.41303037  0.38755489
   0.41638400  0.33144300  0.19252200
   0.83354800  0.41839000  0.09448800
   0.83826147  0.41351791  0.38245519
   0.66732400  0.33240600  0.19435500
   0.91446400  0.32695500  0.19396500
   0.16914200  0.58833400  0.18947800
   0.66961600  0.58928900  0.18986000
   0.58310400  0.91651500  0.09583500
   0.57677516  0.91692791  0.38027784
   0.67460071  0.31631361  0.43622832
   0.16519927  0.83214090  0.43420884
   0.15805011  0.32983683  0.43810047
   0.67035662  0.85601797  0.43574564
   0.67971075  0.59021910  0.43946870
 
 position of ions in cartesian coordinates  (Angst):
  10.01617590  0.00617688  6.08877392
   2.49064944  0.02010159  6.04092256
  -0.02305853  8.67403332  6.07176460
   2.48701066  8.67464138  6.05995952
   8.76931707  2.15909769  6.08043558
   1.25646382  2.19824237  6.08790249
  -0.00284760  1.44433353  2.02729599
  -0.00907086  1.39861428  8.14792446
   3.75185366  2.18755319  6.09034676
   2.50177938  1.44890102  2.02869447
   2.48820355  1.45369542  8.02859727
   6.25780597  2.18622641  6.08847214
   5.00041537  1.45187944  2.04905727
   4.99861685  1.34639542  8.09569003
   7.52679544  1.44773744  2.04371760
   7.50998718  1.42276272  8.02929492
   6.25724091  0.72120290  4.08067585
   8.77724896  0.71231106  4.06936083
  -2.48774799  4.35483433  6.05798152
  -1.27466818  3.61315231  2.03305944
  -1.30109758  3.62118163  8.12505567
  -0.00860297  2.89985133  4.06991175
   5.02424391  4.36045421  6.09452060
   3.76492179  3.61380357  2.03274160
   3.72952187  3.59496395  8.32953062
  -3.76496581  6.52809119  6.07575190
  -1.25908869  6.50732379  6.04271676
  -2.50964037  5.80143935  2.00867070
  -2.50476778  5.75225060  8.09995047
   1.28191676  6.49853261  6.09292813
  -0.00666279  5.79425815  2.00000432
  -0.00476038  5.76844379  8.01729308
   3.77378875  6.50955103  6.07882781
   2.50308286  5.78909151  2.00256821
   2.46206964  5.75913346  8.30624013
   1.25945255  5.05377802  4.04325576
   5.01444784  5.79798335  2.01252713
   5.04606658  5.80864828  8.12938498
   6.27137866  5.06451943  4.04276841
  -3.76517246  7.96147918  2.01691329
  -3.78728346  7.98489042  8.11768908
  -1.24653807  7.96318113  2.02106637
  -1.24712798  7.96174422  8.10699218
  -2.51583691  7.25277174  4.05486743
   0.00963071  7.22591387  4.06957272
   3.74756545  7.96401474  2.04130203
   3.78897302  8.01345218  8.11989322
   2.50222056  7.23651634  4.07554807
   5.01801235  7.23499674  4.07175521
   1.20950420  0.71304047  4.05361727
   3.78048835  0.67792465  4.06351262
  -0.00094476  4.32978809  6.08970365
   2.56471025  4.36878439  6.16367400
   1.23098154  3.62223519  2.02941490
   1.24146884  3.58652344  8.21197042
   2.51333524  2.87806459  4.07938331
   6.26024393  3.63306343  2.00212324
   6.33193051  3.59075693  8.10391193
   5.02462501  2.88642674  4.11822308
   7.52996891  2.83909332  4.10995930
  -1.25359692  5.10876154  4.01488345
   3.75975299  5.11705422  4.02297771
   1.25180714  7.95850076  2.03066507
   1.18627926  7.96208628  8.05777558
   5.17826421  2.74668950  9.24332044
  -2.51542767  7.22584353  9.20052929
  -0.06886689  2.86411754  9.28298976
   2.42996397  7.43317862  9.23309278
   3.85630785  5.12513065  9.31198142
 


--------------------------------------------------------------------------------------------------------


 k-point  1 :   0.0000 0.0000 0.0000  plane waves:   49741
 k-point  2 :   0.3333 0.0000 0.0000  plane waves:   49680
 k-point  3 :   0.0000 0.3333 0.0000  plane waves:   49680
 k-point  4 :   0.3333 0.3333 0.0000  plane waves:   49662
 k-point  5 :  -0.3333 0.3333 0.0000  plane waves:   49680

 maximum and minimum number of plane-waves per node :      2099     2053

 maximum number of plane-waves:     49741
 maximum index in each direction: 
   IXMAX=   18   IYMAX=   18   IZMAX=   39
   IXMIN=  -18   IYMIN=  -18   IZMIN=  -39


 real space projection operators:
  total allocation   :      65146.78 KBytes
  max/ min on nodes  :       3294.31       2405.55


 parallel 3D FFT for wavefunctions:
    minimum data exchange during FFTs selected (reduces bandwidth)
 parallel 3D FFT for charge:
    minimum data exchange during FFTs selected (reduces bandwidth)


 total amount of memory used by VASP MPI-rank0   115777. kBytes
=======================================================================

   base      :      30000. kBytes
   nonlr-proj:      13878. kBytes
   fftplans  :       6402. kBytes
   grid      :      17692. kBytes
   one-center:         93. kBytes
   wavefun   :      47712. kBytes
 
     INWAV:  cpu time   10.9563: real time   11.9921
 Broyden mixing: mesh for mixing (old mesh)
   NGX = 37   NGY = 37   NGZ = 79
  (NGX  =160   NGY  =160   NGZ  =320)
  gives a total of 108151 points

 initial charge density was supplied:
 number of electron     640.0000057 magnetization      72.3564801
 keeping initial charge density in first step


--------------------------------------------------------------------------------------------------------


 Maximum index for non-local projection operator          764
 Maximum index for augmentation-charges         1117 (set IRDMAX)


--------------------------------------------------------------------------------------------------------


 First call to EWALD:  gamma=   0.145
 Maximum number of real-space cells 4x 4x 2
 Maximum number of reciprocal cells 2x 2x 4

    FEWALD:  cpu time    0.0037: real time    0.0034


--------------------------------------- Iteration      1(   1)  ---------------------------------------


    POTLOK:  cpu time    0.4159: real time    0.4505
    SETDIJ:  cpu time    0.0442: real time    0.0442
     EDDAV:  cpu time   40.7444: real time   40.7994
 BZINTS: Fermi energy:  0.216193;640.000000 electrons
         Band energy:***********;  BLOECHL correction: -0.041930
       DOS:  cpu time    0.0507: real time    0.0507
    CHARGE:  cpu time    1.0840: real time    1.0842
    MIXING:  cpu time    0.0142: real time    0.0142
    --------------------------------------------
      LOOP:  cpu time   42.3535: real time   42.4432

 eigenvalue-minimisations  :  8736
 total energy-change (2. order) :-0.4093660E+03  (-0.6952026E-02)
 number of electron     640.0000057 magnetization      72.3826247
 augmentation part      367.7347404 magnetization      62.1529097

 DIPCOR: dipole corrections for dipol
 direction  3 min pos   243,
 dipolmoment           0.000000      0.000000      0.437922 electrons x Angstroem
 Tr[quadrupol]    -10447.726746

 energy correction for charged system         0.000000 eV
 dipol+quadrupol energy correction           -0.009405 eV
 added-field ion interaction          3.959501 eV  (added to PSCEN)


 Broyden mixing:
  rms(total) = 0.10192E+00    rms(broyden)= 0.10178E+00
  rms(prec ) = 0.10809E+00
  weight for this iteration     100.00

 Free energy of the ion-electron system (eV)
  ---------------------------------------------------
  alpha Z        PSCENC =      1360.58179312
  Ewald energy   TEWEN  =    222475.28217525
  -Hartree energ DENC   =   -284785.66249956
  -exchange      EXHF   =         0.00000000
  -V(xc)+E(xc)   XCENC  =      1709.17128173
  PAW double counting   =     68637.75524149   -72144.77034399
  entropy T*S    EENTRO =         0.00000000
  eigenvalues    EBANDS =     -1544.07887366
  atomic energy  EATOM  =     63882.35519389
  Solvation  Ediel_sol  =         0.00000000
  ---------------------------------------------------
  free energy    TOTEN  =      -409.36603173 eV

  energy without entropy =     -409.36603173  energy(sigma->0) =     -409.36603173


--------------------------------------------------------------------------------------------------------




--------------------------------------- Iteration      1(   2)  ---------------------------------------


    POTLOK:  cpu time    0.4168: real time    0.4284
    SETDIJ:  cpu time    0.0249: real time    0.0249
    EDDIAG:  cpu time    5.7338: real time    5.7351
  RMM-DIIS:  cpu time   21.0578: real time   22.0244
    ORTHCH:  cpu time    1.6435: real time    1.6442
 BZINTS: Fermi energy:  0.206379;640.000000 electrons
         Band energy:***********;  BLOECHL correction: -0.040201
       DOS:  cpu time    0.0509: real time    0.0509
    CHARGE:  cpu time    1.0731: real time    1.0734
    MIXING:  cpu time    0.0077: real time    0.0092
    --------------------------------------------
      LOOP:  cpu time   30.0084: real time   30.9906

 eigenvalue-minimisations  :  8729
 total energy-change (2. order) :-0.4066377E-01  (-0.1439593E-01)
 number of electron     640.0000057 magnetization      72.3909616
 augmentation part      367.9319931 magnetization      61.9847087

 DIPCOR: dipole corrections for dipol
 direction  3 min pos   246,
 dipolmoment           0.000000      0.000000      0.388155 electrons x Angstroem
 Tr[quadrupol]    -10447.950587

 energy correction for charged system         0.000000 eV
 dipol+quadrupol energy correction           -0.007389 eV
 added-field ion interaction          8.350012 eV  (added to PSCEN)


 Broyden mixing:
  rms(total) = 0.62470E+00    rms(broyden)= 0.62464E+00
  rms(prec ) = 0.78555E+00
  weight for this iteration     100.00

 eigenvalues of (default mixing * dielectric matrix)
  average eigenvalue GAMMA=   0.0900
  0.0900

 Free energy of the ion-electron system (eV)
  ---------------------------------------------------
  alpha Z        PSCENC =      1364.97432056
  Ewald energy   TEWEN  =    222475.28217525
  -Hartree energ DENC   =   -284785.89684962
  -exchange      EXHF   =         0.00000000
  -V(xc)+E(xc)   XCENC  =      1709.19617504
  PAW double counting   =     68636.42834998   -72143.21407849
  entropy T*S    EENTRO =         0.00000000
  eigenvalues    EBANDS =     -1548.53198211
  atomic energy  EATOM  =     63882.35519389
  Solvation  Ediel_sol  =         0.00000000
  ---------------------------------------------------
  free energy    TOTEN  =      -409.40669551 eV

  energy without entropy =     -409.40669551  energy(sigma->0) =     -409.40669551


--------------------------------------------------------------------------------------------------------




--------------------------------------- Iteration      1(   3)  ---------------------------------------


    POTLOK:  cpu time    0.4145: real time    0.4252
    SETDIJ:  cpu time    0.0248: real time    0.0249
    EDDIAG:  cpu time    5.7325: real time    5.7354
  RMM-DIIS:  cpu time   21.2072: real time   21.4896
    ORTHCH:  cpu time    1.6427: real time    1.6432
 BZINTS: Fermi energy:  0.212515;640.000000 electrons
         Band energy:***********;  BLOECHL correction: -0.042194
       DOS:  cpu time    0.0543: real time    0.0543
    CHARGE:  cpu time    1.0733: real time    1.0737
    MIXING:  cpu time    0.0063: real time    0.0063
    --------------------------------------------
      LOOP:  cpu time   30.1556: real time   30.4527

 eigenvalue-minimisations  :  8809
 total energy-change (2. order) : 0.1347838E+00  (-0.4751679E-02)
 number of electron     640.0000057 magnetization      72.3956351
 augmentation part      367.8236399 magnetization      62.2075659

 DIPCOR: dipole corrections for dipol
 direction  3 min pos   243,
 dipolmoment           0.000000      0.000000      0.471523 electrons x Angstroem
 Tr[quadrupol]    -10447.790015

 energy correction for charged system         0.000000 eV
 dipol+quadrupol energy correction           -0.010904 eV
 added-field ion interaction          4.263308 eV  (added to PSCEN)


 Broyden mixing:
  rms(total) = 0.34264E+00    rms(broyden)= 0.34254E+00
  rms(prec ) = 0.44284E+00
  weight for this iteration     100.00

 eigenvalues of (default mixing * dielectric matrix)
  average eigenvalue GAMMA=   0.1551
  0.2506  0.0596

 Free energy of the ion-electron system (eV)
  ---------------------------------------------------
  alpha Z        PSCENC =      1360.88410144
  Ewald energy   TEWEN  =    222475.28217525
  -Hartree energ DENC   =   -284786.03328454
  -exchange      EXHF   =         0.00000000
  -V(xc)+E(xc)   XCENC  =      1709.27431725
  PAW double counting   =     68638.04614901   -72144.94413232
  entropy T*S    EENTRO =         0.00000000
  eigenvalues    EBANDS =     -1544.13643172
  atomic energy  EATOM  =     63882.35519389
  Solvation  Ediel_sol  =         0.00000000
  ---------------------------------------------------
  free energy    TOTEN  =      -409.27191175 eV

  energy without entropy =     -409.27191175  energy(sigma->0) =     -409.27191175


--------------------------------------------------------------------------------------------------------




--------------------------------------- Iteration      1(   4)  ---------------------------------------


    POTLOK:  cpu time    0.4169: real time    0.4286
    SETDIJ:  cpu time    0.0249: real time    0.0249
    EDDIAG:  cpu time    5.7326: real time    5.7353
  RMM-DIIS:  cpu time   20.9359: real time   21.9366
    ORTHCH:  cpu time    1.6445: real time    1.6452
 BZINTS: Fermi energy:  0.218499;640.000000 electrons
         Band energy:***********;  BLOECHL correction: -0.040839
       DOS:  cpu time    0.0483: real time    0.0484
    CHARGE:  cpu time    1.0752: real time    1.0757
    MIXING:  cpu time    0.0067: real time    0.0081
    --------------------------------------------
      LOOP:  cpu time   29.8851: real time   30.9029

 eigenvalue-minimisations  :  8709
 total energy-change (2. order) : 0.1915854E-01  (-0.3831404E-02)
 number of electron     640.0000057 magnetization      72.4156560
 augmentation part      367.8094915 magnetization      62.1604129

 DIPCOR: dipole corrections for dipol
 direction  3 min pos   242,
 dipolmoment           0.000000      0.000000      0.417577 electrons x Angstroem
 Tr[quadrupol]    -10447.642219

 energy correction for charged system         0.000000 eV
 dipol+quadrupol energy correction           -0.008552 eV
 added-field ion interaction          2.039760 eV  (added to PSCEN)


 Broyden mixing:
  rms(total) = 0.25461E+00    rms(broyden)= 0.25457E+00
  rms(prec ) = 0.32150E+00
  weight for this iteration     100.00

 eigenvalues of (default mixing * dielectric matrix)
  average eigenvalue GAMMA=   0.2518
  0.5951  0.1142  0.0460

 Free energy of the ion-electron system (eV)
  ---------------------------------------------------
  alpha Z        PSCENC =      1358.66290614
  Ewald energy   TEWEN  =    222475.28217525
  -Hartree energ DENC   =   -284784.12391701
  -exchange      EXHF   =         0.00000000
  -V(xc)+E(xc)   XCENC  =      1709.31548984
  PAW double counting   =     68638.90755907   -72146.07293341
  entropy T*S    EENTRO =         0.00000000
  eigenvalues    EBANDS =     -1543.57922697
  atomic energy  EATOM  =     63882.35519389
  Solvation  Ediel_sol  =         0.00000000
  ---------------------------------------------------
  free energy    TOTEN  =      -409.25275321 eV

  energy without entropy =     -409.25275321  energy(sigma->0) =     -409.25275321


--------------------------------------------------------------------------------------------------------




--------------------------------------- Iteration      1(   5)  ---------------------------------------


    POTLOK:  cpu time    0.4177: real time    0.4292
    SETDIJ:  cpu time    0.0248: real time    0.0247
    EDDIAG:  cpu time    5.7300: real time    5.7324
  RMM-DIIS:  cpu time   20.9393: real time   22.9447
    ORTHCH:  cpu time    1.6420: real time    1.6426
 BZINTS: Fermi energy:  0.223838;640.000000 electrons
         Band energy:***********;  BLOECHL correction: -0.041657
       DOS:  cpu time    0.0508: real time    0.0507
    CHARGE:  cpu time    1.0721: real time    1.0724
    MIXING:  cpu time    0.0065: real time    0.0066
    --------------------------------------------
      LOOP:  cpu time   29.8831: real time   31.9033

 eigenvalue-minimisations  :  8649
 total energy-change (2. order) : 0.1358493E-01  (-0.1361359E-02)
 number of electron     640.0000057 magnetization      72.4262165
 augmentation part      367.7479551 magnetization      62.2085532

 DIPCOR: dipole corrections for dipol
 direction  3 min pos   241,
 dipolmoment           0.000000      0.000000      0.427300 electrons x Angstroem
 Tr[quadrupol]    -10447.610178

 energy correction for charged system         0.000000 eV
 dipol+quadrupol energy correction           -0.008955 eV
 added-field ion interaction          0.311046 eV  (added to PSCEN)


 Broyden mixing:
  rms(total) = 0.16271E+00    rms(broyden)= 0.16270E+00
  rms(prec ) = 0.18891E+00
  weight for this iteration     100.00

 eigenvalues of (default mixing * dielectric matrix)
  average eigenvalue GAMMA=   0.2297
  0.6106  0.0477  0.1301  0.1301

 Free energy of the ion-electron system (eV)
  ---------------------------------------------------
  alpha Z        PSCENC =      1356.93378879
  Ewald energy   TEWEN  =    222475.28217525
  -Hartree energ DENC   =   -284785.66087538
  -exchange      EXHF   =         0.00000000
  -V(xc)+E(xc)   XCENC  =      1709.34995463
  PAW double counting   =     68640.46450320   -72147.94436470
  entropy T*S    EENTRO =         0.00000000
  eigenvalues    EBANDS =     -1540.01954396
  atomic energy  EATOM  =     63882.35519389
  Solvation  Ediel_sol  =         0.00000000
  ---------------------------------------------------
  free energy    TOTEN  =      -409.23916828 eV

  energy without entropy =     -409.23916828  energy(sigma->0) =     -409.23916828


--------------------------------------------------------------------------------------------------------




--------------------------------------- Iteration      1(   6)  ---------------------------------------


    POTLOK:  cpu time    0.4139: real time    0.4266
    SETDIJ:  cpu time    0.0249: real time    0.0248
    EDDIAG:  cpu time    5.7408: real time    5.7432
  RMM-DIIS:  cpu time   20.9082: real time   21.0177
    ORTHCH:  cpu time    1.6463: real time    1.6470
 BZINTS: Fermi energy:  0.225560;640.000000 electrons
         Band energy:***********;  BLOECHL correction: -0.041606
       DOS:  cpu time    0.0509: real time    0.0509
    CHARGE:  cpu time    1.0712: real time    1.0715
    MIXING:  cpu time    0.0068: real time    0.0068
    --------------------------------------------
      LOOP:  cpu time   29.8630: real time   29.9886

 eigenvalue-minimisations  :  8655
 total energy-change (2. order) : 0.8353010E-02  (-0.6719405E-03)
 number of electron     640.0000057 magnetization      72.4429293
 augmentation part      367.7756000 magnetization      62.2179388

 DIPCOR: dipole corrections for dipol
 direction  3 min pos   240,
 dipolmoment           0.000000      0.000000      0.427887 electrons x Angstroem
 Tr[quadrupol]    -10447.564830

 energy correction for charged system         0.000000 eV
 dipol+quadrupol energy correction           -0.008979 eV
 added-field ion interaction         -1.467176 eV  (added to PSCEN)


 Broyden mixing:
  rms(total) = 0.86640E-01    rms(broyden)= 0.86634E-01
  rms(prec ) = 0.11071E+00
  weight for this iteration     100.00

 eigenvalues of (default mixing * dielectric matrix)
  average eigenvalue GAMMA=   0.2808
  0.5538  0.5538  0.0472  0.1459  0.1034

 Free energy of the ion-electron system (eV)
  ---------------------------------------------------
  alpha Z        PSCENC =      1355.15554278
  Ewald energy   TEWEN  =    222475.28217525
  -Hartree energ DENC   =   -284785.54181445
  -exchange      EXHF   =         0.00000000
  -V(xc)+E(xc)   XCENC  =      1709.31612172
  PAW double counting   =     68640.03770114   -72147.42470678
  entropy T*S    EENTRO =         0.00000000
  eigenvalues    EBANDS =     -1538.41102881
  atomic energy  EATOM  =     63882.35519389
  Solvation  Ediel_sol  =         0.00000000
  ---------------------------------------------------
  free energy    TOTEN  =      -409.23081527 eV

  energy without entropy =     -409.23081527  energy(sigma->0) =     -409.23081527


--------------------------------------------------------------------------------------------------------




--------------------------------------- Iteration      1(   7)  ---------------------------------------


    POTLOK:  cpu time    0.4175: real time    0.4294
    SETDIJ:  cpu time    0.0266: real time    0.0266
    EDDIAG:  cpu time    5.7630: real time    5.7654
  RMM-DIIS:  cpu time   21.0350: real time   23.4085
    ORTHCH:  cpu time    1.6439: real time    1.6444
 BZINTS: Fermi energy:  0.224813;640.000000 electrons
         Band energy:***********;  BLOECHL correction: -0.041742
       DOS:  cpu time    0.0531: real time    0.0531
    CHARGE:  cpu time    1.0728: real time    1.0731
    MIXING:  cpu time    0.0068: real time    0.0068
    --------------------------------------------
      LOOP:  cpu time   30.0187: real time   32.4072

 eigenvalue-minimisations  :  8712
 total energy-change (2. order) : 0.2045201E-02  (-0.2154851E-03)
 number of electron     640.0000057 magnetization      72.4678019
 augmentation part      367.7965650 magnetization      62.2438565

 DIPCOR: dipole corrections for dipol
 direction  3 min pos   240,
 dipolmoment           0.000000      0.000000      0.432333 electrons x Angstroem
 Tr[quadrupol]    -10447.555345

 energy correction for charged system         0.000000 eV
 dipol+quadrupol energy correction           -0.009167 eV
 added-field ion interaction         -1.482422 eV  (added to PSCEN)


 Broyden mixing:
  rms(total) = 0.76679E-01    rms(broyden)= 0.76676E-01
  rms(prec ) = 0.90679E-01
  weight for this iteration     100.00

 eigenvalues of (default mixing * dielectric matrix)
  average eigenvalue GAMMA=   0.3246
  0.7551  0.7551  0.0472  0.1641  0.1173  0.1089

 Free energy of the ion-electron system (eV)
  ---------------------------------------------------
  alpha Z        PSCENC =      1355.14010866
  Ewald energy   TEWEN  =    222475.28217525
  -Hartree energ DENC   =   -284784.89610499
  -exchange      EXHF   =         0.00000000
  -V(xc)+E(xc)   XCENC  =      1709.30728384
  PAW double counting   =     68639.83710475   -72147.12730565
  entropy T*S    EENTRO =         0.00000000
  eigenvalues    EBANDS =     -1539.12722582
  atomic energy  EATOM  =     63882.35519389
  Solvation  Ediel_sol  =         0.00000000
  ---------------------------------------------------
  free energy    TOTEN  =      -409.22877007 eV

  energy without entropy =     -409.22877007  energy(sigma->0) =     -409.22877007


--------------------------------------------------------------------------------------------------------




--------------------------------------- Iteration      1(   8)  ---------------------------------------


    POTLOK:  cpu time    0.4157: real time    0.4273
    SETDIJ:  cpu time    0.0265: real time    0.0264
    EDDIAG:  cpu time    5.7785: real time    5.7811
  RMM-DIIS:  cpu time   20.9343: real time   23.2370
    ORTHCH:  cpu time    1.6453: real time    1.6458
 BZINTS: Fermi energy:  0.218539;640.000000 electrons
         Band energy:***********;  BLOECHL correction: -0.041765
       DOS:  cpu time    0.0519: real time    0.0519
    CHARGE:  cpu time    1.0733: real time    1.0737
    MIXING:  cpu time    0.0071: real time    0.0071
    --------------------------------------------
      LOOP:  cpu time   29.9326: real time   32.2504

 eigenvalue-minimisations  :  8661
 total energy-change (2. order) : 0.3374433E-02  (-0.1480466E-03)
 number of electron     640.0000057 magnetization      72.4868142
 augmentation part      367.7961595 magnetization      62.2791105

 DIPCOR: dipole corrections for dipol
 direction  3 min pos   242,
 dipolmoment           0.000000      0.000000      0.435231 electrons x Angstroem
 Tr[quadrupol]    -10447.671284

 energy correction for charged system         0.000000 eV
 dipol+quadrupol energy correction           -0.009290 eV
 added-field ion interaction          2.125997 eV  (added to PSCEN)


 Broyden mixing:
  rms(total) = 0.42645E-01    rms(broyden)= 0.42640E-01
  rms(prec ) = 0.48741E-01
  weight for this iteration     100.00

 eigenvalues of (default mixing * dielectric matrix)
  average eigenvalue GAMMA=   0.3555
  0.8527  0.8527  0.3683  0.0472  0.1449  0.1219  0.1011

 Free energy of the ion-electron system (eV)
  ---------------------------------------------------
  alpha Z        PSCENC =      1358.74840458
  Ewald energy   TEWEN  =    222475.28217525
  -Hartree energ DENC   =   -284784.94869718
  -exchange      EXHF   =         0.00000000
  -V(xc)+E(xc)   XCENC  =      1709.32478390
  PAW double counting   =     68640.26845045   -72147.57450717
  entropy T*S    EENTRO =         0.00000000
  eigenvalues    EBANDS =     -1542.68119935
  atomic energy  EATOM  =     63882.35519389
  Solvation  Ediel_sol  =         0.00000000
  ---------------------------------------------------
  free energy    TOTEN  =      -409.22539563 eV

  energy without entropy =     -409.22539563  energy(sigma->0) =     -409.22539563


--------------------------------------------------------------------------------------------------------




--------------------------------------- Iteration      1(   9)  ---------------------------------------


    POTLOK:  cpu time    0.4177: real time    0.4304
    SETDIJ:  cpu time    0.0264: real time    0.0264
    EDDIAG:  cpu time    5.7704: real time    5.7731
  RMM-DIIS:  cpu time   20.9798: real time   20.9936
    ORTHCH:  cpu time    1.6410: real time    1.6416
 BZINTS: Fermi energy:  0.216447;640.000000 electrons
         Band energy:***********;  BLOECHL correction: -0.041844
       DOS:  cpu time    0.0531: real time    0.0531
    CHARGE:  cpu time    1.0730: real time    1.0733
    MIXING:  cpu time    0.0072: real time    0.0072
    --------------------------------------------
      LOOP:  cpu time   29.9685: real time   29.9986

 eigenvalue-minimisations  :  8699
 total energy-change (2. order) : 0.5088184E-03  (-0.1192243E-03)
 number of electron     640.0000057 magnetization      72.5260468
 augmentation part      367.7786096 magnetization      62.3267082

 DIPCOR: dipole corrections for dipol
 direction  3 min pos   243,
 dipolmoment           0.000000      0.000000      0.434682 electrons x Angstroem
 Tr[quadrupol]    -10447.729099

 energy correction for charged system         0.000000 eV
 dipol+quadrupol energy correction           -0.009267 eV
 added-field ion interaction          3.930210 eV  (added to PSCEN)


 Broyden mixing:
  rms(total) = 0.48565E-01    rms(broyden)= 0.48563E-01
  rms(prec ) = 0.54862E-01
  weight for this iteration     100.00

 eigenvalues of (default mixing * dielectric matrix)
  average eigenvalue GAMMA=   0.4258
  1.1456  1.1456  0.5747  0.0472  0.1551  0.1315  0.1064  0.1000

 Free energy of the ion-electron system (eV)
  ---------------------------------------------------
  alpha Z        PSCENC =      1360.55264140
  Ewald energy   TEWEN  =    222475.28217525
  -Hartree energ DENC   =   -284785.12874893
  -exchange      EXHF   =         0.00000000
  -V(xc)+E(xc)   XCENC  =      1709.34063257
  PAW double counting   =     68640.85617702   -72148.25499904
  entropy T*S    EENTRO =         0.00000000
  eigenvalues    EBANDS =     -1544.22795898
  atomic energy  EATOM  =     63882.35519389
  Solvation  Ediel_sol  =         0.00000000
  ---------------------------------------------------
  free energy    TOTEN  =      -409.22488681 eV

  energy without entropy =     -409.22488681  energy(sigma->0) =     -409.22488681


--------------------------------------------------------------------------------------------------------




--------------------------------------- Iteration      1(  10)  ---------------------------------------


    POTLOK:  cpu time    0.4152: real time    0.4275
    SETDIJ:  cpu time    0.0274: real time    0.0274
    EDDIAG:  cpu time    5.7678: real time    5.7703
  RMM-DIIS:  cpu time   20.9276: real time   20.9431
    ORTHCH:  cpu time    1.6436: real time    1.6440
 BZINTS: Fermi energy:  0.217045;640.000000 electrons
         Band energy:***********;  BLOECHL correction: -0.042176
       DOS:  cpu time    0.0531: real time    0.0531
    CHARGE:  cpu time    1.0727: real time    1.0730
    MIXING:  cpu time    0.0084: real time    0.0084
    --------------------------------------------
      LOOP:  cpu time   29.9158: real time   29.9469

 eigenvalue-minimisations  :  8684
 total energy-change (2. order) : 0.1019086E-02  (-0.9693309E-04)
 number of electron     640.0000057 magnetization      72.5456400
 augmentation part      367.7772649 magnetization      62.3307524

 DIPCOR: dipole corrections for dipol
 direction  3 min pos   243,
 dipolmoment           0.000000      0.000000      0.434012 electrons x Angstroem
 Tr[quadrupol]    -10447.736053

 energy correction for charged system         0.000000 eV
 dipol+quadrupol energy correction           -0.009238 eV
 added-field ion interaction          3.924151 eV  (added to PSCEN)


 Broyden mixing:
  rms(total) = 0.40367E-01    rms(broyden)= 0.40364E-01
  rms(prec ) = 0.46300E-01
  weight for this iteration     100.00

 eigenvalues of (default mixing * dielectric matrix)
  average eigenvalue GAMMA=   0.4222
  1.2481  1.2481  0.5965  0.0472  0.1719  0.1551  0.1280  0.1064  0.0981

 Free energy of the ion-electron system (eV)
  ---------------------------------------------------
  alpha Z        PSCENC =      1360.54661033
  Ewald energy   TEWEN  =    222475.28217525
  -Hartree energ DENC   =   -284785.38178638
  -exchange      EXHF   =         0.00000000
  -V(xc)+E(xc)   XCENC  =      1709.33606376
  PAW double counting   =     68641.48547170   -72148.97557145
  entropy T*S    EENTRO =         0.00000000
  eigenvalues    EBANDS =     -1543.87202483
  atomic energy  EATOM  =     63882.35519389
  Solvation  Ediel_sol  =         0.00000000
  ---------------------------------------------------
  free energy    TOTEN  =      -409.22386773 eV

  energy without entropy =     -409.22386773  energy(sigma->0) =     -409.22386773


--------------------------------------------------------------------------------------------------------




--------------------------------------- Iteration      1(  11)  ---------------------------------------


    POTLOK:  cpu time    0.4171: real time    0.4295
    SETDIJ:  cpu time    0.0265: real time    0.0265
    EDDIAG:  cpu time    5.7674: real time    5.7699
  RMM-DIIS:  cpu time   21.1325: real time   21.1463
    ORTHCH:  cpu time    1.6421: real time    1.6426
 BZINTS: Fermi energy:  0.211824;640.000000 electrons
         Band energy:***********;  BLOECHL correction: -0.042142
       DOS:  cpu time    0.0531: real time    0.0531
    CHARGE:  cpu time    1.0755: real time    1.0758
    MIXING:  cpu time    0.0077: real time    0.0077
    --------------------------------------------
      LOOP:  cpu time   30.1219: real time   30.1513

 eigenvalue-minimisations  :  8753
 total energy-change (2. order) : 0.5402465E-03  (-0.5856961E-04)
 number of electron     640.0000057 magnetization      72.5804367
 augmentation part      367.7757320 magnetization      62.3660333

 DIPCOR: dipole corrections for dipol
 direction  3 min pos   245,
 dipolmoment           0.000000      0.000000      0.433638 electrons x Angstroem
 Tr[quadrupol]    -10447.853674

 energy correction for charged system         0.000000 eV
 dipol+quadrupol energy correction           -0.009222 eV
 added-field ion interaction          7.525879 eV  (added to PSCEN)


 Broyden mixing:
  rms(total) = 0.26151E-01    rms(broyden)= 0.26149E-01
  rms(prec ) = 0.31566E-01
  weight for this iteration     100.00

 eigenvalues of (default mixing * dielectric matrix)
  average eigenvalue GAMMA=   0.4542
  1.4155  1.4155  0.5997  0.4483  0.0472  0.1613  0.1376  0.1180  0.1030  0.0957

 Free energy of the ion-electron system (eV)
  ---------------------------------------------------
  alpha Z        PSCENC =      1364.14835475
  Ewald energy   TEWEN  =    222475.28217525
  -Hartree energ DENC   =   -284785.41892144
  -exchange      EXHF   =         0.00000000
  -V(xc)+E(xc)   XCENC  =      1709.33427806
  PAW double counting   =     68641.66413450   -72149.16599050
  entropy T*S    EENTRO =         0.00000000
  eigenvalues    EBANDS =     -1547.42255199
  atomic energy  EATOM  =     63882.35519389
  Solvation  Ediel_sol  =         0.00000000
  ---------------------------------------------------
  free energy    TOTEN  =      -409.22332748 eV

  energy without entropy =     -409.22332748  energy(sigma->0) =     -409.22332748


--------------------------------------------------------------------------------------------------------




--------------------------------------- Iteration      1(  12)  ---------------------------------------


    POTLOK:  cpu time    0.4187: real time    0.4315
    SETDIJ:  cpu time    0.0247: real time    0.0248
    EDDIAG:  cpu time    5.7998: real time    5.8022
  RMM-DIIS:  cpu time   20.9265: real time   20.9384
    ORTHCH:  cpu time    1.6521: real time    1.6526
 BZINTS: Fermi energy:  0.202642;640.000000 electrons
         Band energy:***********;  BLOECHL correction: -0.042164
       DOS:  cpu time    0.0531: real time    0.0532
    CHARGE:  cpu time    1.0692: real time    1.0695
    MIXING:  cpu time    0.0082: real time    0.0082
    --------------------------------------------
      LOOP:  cpu time   29.9524: real time   29.9805

 eigenvalue-minimisations  :  8659
 total energy-change (2. order) :-0.7560025E-03  (-0.3545055E-04)
 number of electron     640.0000057 magnetization      72.6069060
 augmentation part      367.7865897 magnetization      62.3873438

 DIPCOR: dipole corrections for dipol
 direction  3 min pos   248,
 dipolmoment           0.000000      0.000000      0.434716 electrons x Angstroem
 Tr[quadrupol]    -10448.023412

 energy correction for charged system         0.000000 eV
 dipol+quadrupol energy correction           -0.009268 eV
 added-field ion interaction         12.965694 eV  (added to PSCEN)


 Broyden mixing:
  rms(total) = 0.25906E-01    rms(broyden)= 0.25904E-01
  rms(prec ) = 0.29450E-01
  weight for this iteration     100.00

 eigenvalues of (default mixing * dielectric matrix)
  average eigenvalue GAMMA=   0.4684
  1.5599  1.5599  0.6071  0.6071  0.0472  0.1625  0.1625  0.1316  0.1154  0.1033
  0.0956

 Free energy of the ion-electron system (eV)
  ---------------------------------------------------
  alpha Z        PSCENC =      1369.58812389
  Ewald energy   TEWEN  =    222475.28217525
  -Hartree energ DENC   =   -284785.18576816
  -exchange      EXHF   =         0.00000000
  -V(xc)+E(xc)   XCENC  =      1709.33373562
  PAW double counting   =     68641.76650236   -72149.24638375
  entropy T*S    EENTRO =         0.00000000
  eigenvalues    EBANDS =     -1553.11766257
  atomic energy  EATOM  =     63882.35519389
  Solvation  Ediel_sol  =         0.00000000
  ---------------------------------------------------
  free energy    TOTEN  =      -409.22408348 eV

  energy without entropy =     -409.22408348  energy(sigma->0) =     -409.22408348


--------------------------------------------------------------------------------------------------------




--------------------------------------- Iteration      1(  13)  ---------------------------------------


    POTLOK:  cpu time    0.4220: real time    0.4336
    SETDIJ:  cpu time    0.0251: real time    0.0251
    EDDIAG:  cpu time    5.7994: real time    5.8017
  RMM-DIIS:  cpu time   21.0955: real time   21.1076
    ORTHCH:  cpu time    1.6471: real time    1.6476
 BZINTS: Fermi energy:  0.196954;640.000000 electrons
         Band energy:***********;  BLOECHL correction: -0.042275
       DOS:  cpu time    0.0519: real time    0.0519
    CHARGE:  cpu time    1.0705: real time    1.0708
    MIXING:  cpu time    0.0080: real time    0.0080
    --------------------------------------------
      LOOP:  cpu time   30.1194: real time   30.1463

 eigenvalue-minimisations  :  8755
 total energy-change (2. order) :-0.8351496E-03  (-0.2653127E-04)
 number of electron     640.0000057 magnetization      72.6328332
 augmentation part      367.7831917 magnetization      62.4121185

 DIPCOR: dipole corrections for dipol
 direction  3 min pos   250,
 dipolmoment           0.000000      0.000000      0.436004 electrons x Angstroem
 Tr[quadrupol]    -10448.138869

 energy correction for charged system         0.000000 eV
 dipol+quadrupol energy correction           -0.009323 eV
 added-field ion interaction         16.628908 eV  (added to PSCEN)


 Broyden mixing:
  rms(total) = 0.15448E-01    rms(broyden)= 0.15446E-01
  rms(prec ) = 0.16749E-01
  weight for this iteration     100.00

 eigenvalues of (default mixing * dielectric matrix)
  average eigenvalue GAMMA=   0.4860
  1.6797  1.6797  0.6700  0.6700  0.3409  0.0472  0.1682  0.1404  0.1270  0.1119
  0.1022  0.0953

 Free energy of the ion-electron system (eV)
  ---------------------------------------------------
  alpha Z        PSCENC =      1373.25128282
  Ewald energy   TEWEN  =    222475.28217525
  -Hartree energ DENC   =   -284785.14385222
  -exchange      EXHF   =         0.00000000
  -V(xc)+E(xc)   XCENC  =      1709.33838684
  PAW double counting   =     68641.95363273   -72149.44163340
  entropy T*S    EENTRO =         0.00000000
  eigenvalues    EBANDS =     -1556.82010454
  atomic energy  EATOM  =     63882.35519389
  Solvation  Ediel_sol  =         0.00000000
  ---------------------------------------------------
  free energy    TOTEN  =      -409.22491863 eV

  energy without entropy =     -409.22491863  energy(sigma->0) =     -409.22491863


--------------------------------------------------------------------------------------------------------




--------------------------------------- Iteration      1(  14)  ---------------------------------------


    POTLOK:  cpu time    0.4192: real time    0.4317
    SETDIJ:  cpu time    0.0248: real time    0.0248
    EDDIAG:  cpu time    5.8053: real time    5.8075
  RMM-DIIS:  cpu time   21.0516: real time   21.0636
    ORTHCH:  cpu time    1.6528: real time    1.6532
 BZINTS: Fermi energy:  0.196895;640.000000 electrons
         Band energy:***********;  BLOECHL correction: -0.042287
       DOS:  cpu time    0.0519: real time    0.0519
    CHARGE:  cpu time    1.0709: real time    1.0712
    MIXING:  cpu time    0.0084: real time    0.0084
    --------------------------------------------
      LOOP:  cpu time   30.0849: real time   30.1124

 eigenvalue-minimisations  :  8710
 total energy-change (2. order) :-0.1419137E-02  (-0.1860680E-04)
 number of electron     640.0000057 magnetization      72.6891334
 augmentation part      367.7865258 magnetization      62.4618585

 DIPCOR: dipole corrections for dipol
 direction  3 min pos   250,
 dipolmoment           0.000000      0.000000      0.435907 electrons x Angstroem
 Tr[quadrupol]    -10448.135680

 energy correction for charged system         0.000000 eV
 dipol+quadrupol energy correction           -0.009319 eV
 added-field ion interaction         16.625204 eV  (added to PSCEN)


 Broyden mixing:
  rms(total) = 0.17283E-01    rms(broyden)= 0.17282E-01
  rms(prec ) = 0.18917E-01
  weight for this iteration     100.00

 eigenvalues of (default mixing * dielectric matrix)
  average eigenvalue GAMMA=   0.5222
  1.8871  1.8871  0.7992  0.7992  0.4778  0.0472  0.1736  0.1534  0.1383  0.1206
  0.1073  0.1024  0.0953

 Free energy of the ion-electron system (eV)
  ---------------------------------------------------
  alpha Z        PSCENC =      1373.24758275
  Ewald energy   TEWEN  =    222475.28217525
[...]
   -.274E+02 0.341E+02 0.302E+04   0.275E+02 -.342E+02 -.302E+04   -.244E+00 0.617E-02 -.119E+01   -.119E-04 0.825E-04 -.294E-03
   -.223E+02 0.427E+02 -.267E+04   0.227E+02 -.427E+02 0.267E+04   -.412E+00 -.402E-01 0.272E+01   0.183E-03 -.513E-04 -.341E-03
   0.515E+02 0.929E+02 -.720E+03   -.513E+02 -.928E+02 0.720E+03   -.186E+00 -.659E-01 0.620E+00   -.103E-03 -.138E-03 -.998E-03
   0.203E+02 0.524E+02 0.301E+04   -.203E+02 -.525E+02 -.301E+04   0.245E+00 0.168E-02 -.128E+01   -.140E-04 0.674E-04 -.277E-03
   0.196E+03 0.830E+02 -.265E+04   -.197E+03 -.838E+02 0.265E+04   0.146E+01 0.759E+00 0.100E+00   -.899E-05 0.188E-05 -.350E-03
   -.302E+02 0.103E+03 0.113E+04   0.303E+02 -.103E+03 -.113E+04   -.149E+00 0.136E+00 -.566E+00   0.565E-04 0.541E-04 -.928E-03
   0.113E+02 0.787E+02 0.301E+04   -.115E+02 -.788E+02 -.301E+04   -.432E-01 0.104E+00 -.122E+01   -.100E-04 0.126E-03 -.297E-03
   -.120E+03 -.150E+02 -.261E+04   0.121E+03 0.156E+02 0.261E+04   -.827E+00 -.610E+00 0.854E+00   -.102E-03 -.468E-04 -.427E-03
   0.949E+01 0.119E+03 0.120E+04   -.942E+01 -.119E+03 -.120E+04   -.109E+00 0.215E+00 -.336E+00   -.536E-04 0.436E-04 -.897E-03
   -.154E+02 -.313E+02 0.302E+04   0.155E+02 0.314E+02 -.302E+04   -.900E-01 -.567E-01 -.160E+01   0.228E-05 0.963E-04 -.338E-03
   0.714E+02 -.842E+02 -.269E+04   -.732E+02 0.852E+02 0.269E+04   0.172E+01 -.104E+01 0.702E+00   -.158E-03 -.250E-04 -.222E-03
   -.316E+02 -.349E+02 0.301E+04   0.317E+02 0.349E+02 -.301E+04   -.115E+00 0.483E-01 -.113E+01   -.488E-04 0.253E-04 -.306E-03
   -.138E+03 -.504E+02 -.269E+04   0.139E+03 0.514E+02 0.269E+04   -.167E+01 -.101E+01 0.537E+00   0.134E-03 0.326E-06 -.269E-03
   -.257E+02 -.152E+02 0.118E+04   0.257E+02 0.152E+02 -.118E+04   0.599E-02 -.138E-01 -.470E+00   0.151E-04 0.212E-04 -.119E-02
   0.300E+01 0.194E+02 0.118E+04   -.282E+01 -.193E+02 -.118E+04   -.703E-01 -.128E+00 -.390E+00   0.571E-04 0.717E-04 -.106E-02
   0.341E+02 0.413E+01 0.303E+04   -.341E+02 -.409E+01 -.303E+04   0.192E+00 -.410E-01 -.136E+01   0.478E-04 0.114E-03 -.330E-03
   -.578E+02 -.592E+02 -.268E+04   0.594E+02 0.606E+02 0.268E+04   -.160E+01 -.142E+01 0.979E+00   -.927E-04 -.560E-04 -.266E-03
   0.214E+02 0.611E+02 0.117E+04   -.216E+02 -.610E+02 -.117E+04   0.909E-01 -.156E+00 -.349E+00   -.248E-04 0.199E-04 -.981E-03
   0.133E+00 0.279E+02 0.116E+04   -.422E-01 -.279E+02 -.116E+04   -.746E-01 -.362E-01 -.141E+00   -.458E-04 -.173E-04 -.109E-02
   -.639E+02 -.767E+02 0.937E+03   0.641E+02 0.769E+02 -.937E+03   -.183E+00 -.119E+00 -.351E+00   0.606E-06 -.204E-04 -.991E-03
   0.288E+02 -.933E+02 0.939E+03   -.290E+02 0.935E+02 -.940E+03   0.137E+00 -.206E+00 -.343E+00   0.679E-04 -.390E-04 -.891E-03
   -.538E+02 0.126E+02 -.577E+03   0.540E+02 -.126E+02 0.577E+03   -.285E+00 -.432E-01 0.308E+00   0.125E-03 0.482E-04 -.800E-03
   0.422E+02 0.426E+02 -.603E+03   -.424E+02 -.426E+02 0.603E+03   0.199E+00 0.557E-01 0.149E+00   0.598E-04 0.798E-04 -.764E-03
   -.299E+02 0.121E+02 0.238E+04   0.299E+02 -.120E+02 -.237E+04   -.150E-01 -.305E-01 -.271E+01   -.119E-04 -.566E-04 -.243E-03
   -.647E+02 -.639E+02 -.212E+04   0.647E+02 0.641E+02 0.212E+04   -.647E-01 -.170E+00 0.169E+01   0.384E-04 0.695E-04 -.216E-03
   -.260E+02 -.278E+02 0.906E+03   0.263E+02 0.277E+02 -.906E+03   -.279E+00 0.114E+00 -.295E+00   0.266E-04 0.431E-04 -.803E-03
   0.120E+02 0.315E+02 0.238E+04   -.119E+02 -.316E+02 -.238E+04   -.363E-01 0.602E-01 -.301E+01   -.146E-05 -.539E-04 -.259E-03
   -.864E+02 -.442E+02 -.211E+04   0.876E+02 0.442E+02 0.211E+04   -.117E+01 0.273E-01 0.106E+01   -.782E-04 -.489E-05 -.298E-03
   0.422E+02 -.281E+02 0.925E+03   -.422E+02 0.280E+02 -.925E+03   -.220E-01 0.179E+00 -.422E+00   -.389E-04 -.104E-04 -.743E-03
   0.303E+02 -.652E+02 0.931E+03   -.307E+02 0.652E+02 -.931E+03   0.370E+00 -.240E-01 -.287E+00   -.449E-04 -.405E-04 -.853E-03
   -.146E+02 0.696E+02 0.938E+03   0.147E+02 -.695E+02 -.938E+03   0.250E-01 -.987E-01 -.409E+00   0.290E-04 0.548E-04 -.820E-03
   0.284E+02 0.117E+03 0.928E+03   -.287E+02 -.117E+03 -.927E+03   0.213E+00 0.267E+00 -.464E+00   -.305E-04 0.114E-04 -.677E-03
   0.102E+02 -.108E+02 0.243E+04   -.103E+02 0.108E+02 -.243E+04   0.202E-01 0.459E-01 -.279E+01   -.189E-06 0.284E-04 -.205E-03
   0.966E+02 -.258E+02 -.211E+04   -.976E+02 0.262E+02 0.211E+04   0.972E+00 -.411E+00 0.828E+00   0.100E-03 -.352E-04 -.289E-03
   -.631E+02 0.324E+02 -.214E+04   0.633E+02 -.331E+02 0.217E+04   -.229E+00 0.660E+00 -.278E+02   0.313E-05 0.956E-05 0.930E-04
   -.229E+02 0.191E+01 -.220E+04   0.226E+02 -.228E+01 0.222E+04   0.298E+00 0.383E+00 -.281E+02   -.453E-04 -.347E-04 0.194E-03
   -.120E+02 -.245E+02 -.216E+04   0.985E+01 0.235E+02 0.219E+04   0.217E+01 0.918E+00 -.280E+02   0.274E-04 -.414E-04 0.133E-03
   0.664E+02 -.637E+02 -.215E+04   -.642E+02 0.643E+02 0.218E+04   -.223E+01 -.610E+00 -.280E+02   0.523E-05 -.512E-05 0.507E-04
   -.157E+02 -.255E+01 -.218E+04   0.184E+02 0.468E+01 0.221E+04   -.264E+01 -.213E+01 -.290E+02   -.671E-04 -.135E-04 0.807E-04
 -----------------------------------------------------------------------------------------------
   0.157E+01 -.581E+00 0.152E+03   -.263E-12 0.107E-11 0.546E-11   -.157E+01 0.588E+00 -.152E+03   -.146E-03 -.912E-04 -.405E-01
 
 
 POSITION                                       TOTAL-FORCE (eV/Angst)
 -----------------------------------------------------------------------------------
     10.01618      0.00618      6.08877        -0.000688     -0.021331     -0.034569
      2.49065      0.02010      6.04092         0.001522     -0.002421     -0.004201
     -0.02306      8.67403      6.07176        -0.004775      0.018430      0.000058
      2.48701      8.67464      6.05996        -0.007105     -0.000286     -0.002829
      8.76932      2.15910      6.08044         0.006766     -0.013481     -0.004077
      1.25646      2.19824      6.08790        -0.014429      0.015026     -0.020913
     -0.00285      1.44433      2.02730        -0.077722     -0.012362      0.193663
     -0.00907      1.39861      8.14792         0.003673     -0.022647      0.006894
      3.75185      2.18755      6.09035         0.024051     -0.003026     -0.014539
      2.50178      1.44890      2.02869         0.113270     -0.065472      0.210054
      2.48820      1.45370      8.02860        -0.000968     -0.001654     -0.018934
      6.25781      2.18623      6.08847         0.005618      0.009602     -0.032293
      5.00042      1.45188      2.04906        -0.041770      0.033220      0.216296
      4.99862      1.34640      8.09569        -0.005865      0.014634      0.021422
      7.52680      1.44774      2.04372        -0.007227      0.009375      0.322084
      7.50999      1.42276      8.02929        -0.015039     -0.012283      0.010519
      6.25724      0.72120      4.08068         0.024379     -0.078708     -0.299854
      8.77725      0.71231      4.06936        -0.018338     -0.027361     -0.150905
     -2.48775      4.35483      6.05798        -0.006609      0.005615     -0.016968
     -1.27467      3.61315      2.03306        -0.058121      0.142033      0.215056
     -1.30110      3.62118      8.12506         0.005058     -0.009138      0.003222
     -0.00860      2.89985      4.06991         0.102539      0.000361     -0.191409
      5.02424      4.36045      6.09452         0.002285     -0.021186     -0.031034
      3.76492      3.61380      2.03274        -0.062702      0.114766      0.135425
      3.72952      3.59496      8.32953         0.012668      0.008170      0.011699
     -3.76497      6.52809      6.07575        -0.004848      0.003020     -0.014935
     -1.25909      6.50732      6.04272         0.003704     -0.010473     -0.011591
     -2.50964      5.80144      2.00867         0.151364     -0.056716      0.359529
     -2.50477      5.75225      8.09995        -0.000337     -0.000107      0.003431
      1.28192      6.49853      6.09293         0.006476     -0.015478     -0.003999
     -0.00666      5.79426      2.00000        -0.125111     -0.093631      0.272534
     -0.00476      5.76844      8.01729         0.016203      0.013474     -0.005883
      3.77379      6.50955      6.07883        -0.005835      0.007909     -0.048352
      2.50308      5.78909      2.00257         0.213282     -0.098234      0.274743
      2.46207      5.75913      8.30624         0.024776     -0.000532      0.016396
      1.25945      5.05378      4.04326         0.007323     -0.030071     -0.080731
      5.01445      5.79798      2.01253        -0.233619     -0.052513      0.269937
      5.04607      5.80865      8.12938        -0.005544     -0.000774     -0.023837
      6.27138      5.06452      4.04277        -0.028775     -0.052695     -0.106257
     -3.76517      7.96148      2.01691         0.043410      0.054040      0.271174
     -3.78728      7.98489      8.11769        -0.007898     -0.013456      0.004733
     -1.24654      7.96318      2.02107        -0.072037      0.023090      0.209460
     -1.24713      7.96174      8.10699        -0.005348     -0.018128     -0.026562
     -2.51584      7.25277      4.05487        -0.026851     -0.014790     -0.206833
      0.00963      7.22591      4.06957         0.115818     -0.047050     -0.245587
      3.74757      7.96401      2.04130         0.131650      0.000245      0.203307
      3.78897      8.01345      8.11989        -0.008377     -0.009181     -0.034280
      2.50222      7.23652      4.07555        -0.066654     -0.051176     -0.152047
      5.01801      7.23500      4.07176         0.016446     -0.001337     -0.053121
      1.20950      0.71304      4.05362         0.006581      0.053592     -0.291564
      3.78049      0.67792      4.06351        -0.075710      0.045469     -0.322117
     -0.00094      4.32979      6.08970        -0.004957     -0.016751     -0.020221
      2.56471      4.36878      6.16367        -0.007922      0.000869     -0.002405
      1.23098      3.62224      2.02941        -0.005763      0.075596      0.139402
      1.24147      3.58652      8.21197         0.011839      0.023309      0.022984
      2.51334      2.87806      4.07938        -0.026653      0.047889     -0.106805
      6.26024      3.63306      2.00212         0.017839     -0.009511      0.202427
      6.33193      3.59076      8.10391        -0.014475     -0.024863     -0.013158
      5.02463      2.88643      4.11822         0.029082      0.092341     -0.384924
      7.52997      2.83909      4.10996         0.013768     -0.021671     -0.324795
     -1.25360      5.10876      4.01488         0.064114      0.010458     -0.369027
      3.75975      5.11705      4.02298        -0.068360      0.052692     -0.210495
      1.25181      7.95850      2.03067        -0.050958      0.077364      0.333605
      1.18628      7.96209      8.05778        -0.002240     -0.000473     -0.018863
      5.17826      2.74669      9.24332        -0.000361     -0.021843     -0.018419
     -2.51543      7.22584      9.20053         0.018407      0.012520     -0.008902
     -0.06887      2.86412      9.28299        -0.026661     -0.003836     -0.020315
      2.42996      7.43318      9.23309        -0.007610     -0.011706      0.012606
      3.85631      5.12513      9.31198         0.010356      0.003245      0.005888
 -----------------------------------------------------------------------------------
    total drift:                               -0.000600      0.006629     -0.000541


--------------------------------------------------------------------------------------------------------



  FREE ENERGIE OF THE ION-ELECTRON SYSTEM (eV)
  ---------------------------------------------------
  free  energy   TOTEN  =      -426.08319435 eV

  energy  without entropy=     -426.08319435  energy(sigma->0) =     -426.08319435
 


--------------------------------------------------------------------------------------------------------


    POTLOK:  cpu time    0.4657: real time    0.4658


--------------------------------------------------------------------------------------------------------


 stress matrix after NEB project (eV)
    -28.05550      0.45707      0.13748
      0.45707    -27.50132     -0.70764
      0.13748     -0.70764     -9.12429
  FORCES: max atom, RMS     0.049341    0.018589
  FORCE total and by dimension    0.154412    0.048352
  Stress total and by dimension   40.350260   28.055498
 writing wavefunctions
     LOOP+:  cpu time 1223.0577: real time 1343.9134
    4ORBIT:  cpu time    0.0000: real time    0.0000
 


 total charge     
 
# of ion       s       p       d       tot
------------------------------------------
    1        0.502   0.501   8.328   9.331
    2        0.497   0.498   8.329   9.324
    3        0.512   0.515   8.337   9.364
    4        0.496   0.501   8.320   9.317
    5        0.498   0.503   8.326   9.327
    6        0.509   0.516   8.322   9.346
    7        0.489   0.382   8.320   9.191
    8        0.492   0.498   8.331   9.322
    9        0.506   0.507   8.325   9.338
   10        0.501   0.390   8.304   9.195
   11        0.481   0.385   8.348   9.215
   12        0.507   0.517   8.337   9.361
   13        0.498   0.396   8.312   9.206
   14        0.510   0.533   8.342   9.384
   15        0.498   0.388   8.311   9.198
   16        0.475   0.382   8.369   9.225
   17        0.510   0.516   8.336   9.362
   18        0.504   0.506   8.330   9.339
   19        0.511   0.519   8.329   9.359
   20        0.501   0.393   8.312   9.207
   21        0.502   0.514   8.339   9.355
   22        0.513   0.525   8.325   9.364
   23        0.499   0.494   8.327   9.320
   24        0.505   0.394   8.308   9.207
   25        0.471   0.564   8.331   9.366
   26        0.488   0.487   8.315   9.290
   27        0.496   0.499   8.326   9.321
   28        0.492   0.385   8.311   9.189
   29        0.496   0.509   8.327   9.332
   30        0.501   0.505   8.321   9.327
   31        0.499   0.387   8.315   9.201
   32        0.488   0.395   8.358   9.242
   33        0.495   0.487   8.323   9.304
   34        0.494   0.386   8.317   9.197
   35        0.471   0.566   8.328   9.365
   36        0.507   0.514   8.322   9.343
   37        0.496   0.382   8.310   9.188
   38        0.482   0.487   8.351   9.319
   39        0.505   0.512   8.317   9.334
   40        0.486   0.373   8.309   9.168
   41        0.494   0.503   8.325   9.322
   42        0.494   0.382   8.308   9.184
   43        0.502   0.509   8.341   9.352
   44        0.506   0.509   8.328   9.343
   45        0.505   0.511   8.328   9.344
   46        0.486   0.378   8.307   9.171
   47        0.487   0.484   8.348   9.320
   48        0.501   0.506   8.318   9.325
   49        0.502   0.504   8.321   9.327
   50        0.478   0.513   6.162   7.153
   51        0.482   0.516   6.181   7.179
   52        0.472   0.508   6.177   7.158
   53        0.468   0.496   6.160   7.124
   54        0.465   0.393   6.112   6.970
   55        0.467   0.509   6.169   7.145
   56        0.476   0.515   6.204   7.196
   57        0.463   0.390   6.110   6.963
   58        0.477   0.519   6.163   7.159
   59        0.480   0.516   6.207   7.203
   60        0.479   0.517   6.178   7.173
   61        0.477   0.510   6.154   7.141
   62        0.477   0.509   6.159   7.145
   63        0.462   0.395   6.095   6.951
   64        0.494   0.564   6.191   7.249
   65        1.584   3.352   0.000   4.936
   66        1.583   3.339   0.000   4.922
   67        1.582   3.353   0.000   4.935
   68        1.585   3.350   0.000   4.935
   69        1.587   3.339   0.000   4.927
--------------------------------------------------
tot         39.399  47.102 500.396 586.897
 


 magnetization (x)
 
# of ion       s       p       d       tot
------------------------------------------
    1       -0.008  -0.024   0.614   0.581
    2       -0.012  -0.028   0.696   0.656
    3       -0.008  -0.026   0.563   0.530
    4       -0.010  -0.030   0.731   0.691
    5       -0.010  -0.029   0.725   0.685
    6       -0.020  -0.043   0.772   0.709
    7       -0.015  -0.030   0.684   0.639
    8       -0.005  -0.015   0.524   0.504
    9       -0.014  -0.034   0.728   0.681
   10       -0.015  -0.034   0.784   0.734
   11       -0.012  -0.018   0.762   0.732
   12       -0.015  -0.036   0.709   0.658
   13       -0.018  -0.036   0.740   0.686
   14       -0.009  -0.018   0.299   0.273
   15       -0.010  -0.035   0.733   0.688
   16       -0.015  -0.019   0.732   0.698
   17       -0.016  -0.034   0.693   0.643
   18       -0.011  -0.028   0.688   0.649
   19       -0.014  -0.033   0.660   0.613
   20       -0.021  -0.034   0.749   0.694
   21       -0.011  -0.023   0.563   0.529
   22       -0.019  -0.048   0.779   0.712
   23       -0.016  -0.036   0.756   0.704
   24       -0.022  -0.033   0.772   0.717
   25       -0.011  -0.013   0.328   0.305
   26       -0.004  -0.023   0.687   0.660
   27       -0.011  -0.029   0.701   0.660
   28       -0.011  -0.029   0.729   0.689
   29       -0.007  -0.018   0.548   0.523
   30       -0.013  -0.036   0.738   0.689
   31       -0.013  -0.033   0.736   0.690
   32       -0.017  -0.024   0.752   0.711
   33       -0.011  -0.029   0.742   0.702
   34       -0.016  -0.034   0.715   0.664
   35       -0.011  -0.012   0.387   0.364
   36       -0.021  -0.043   0.749   0.684
   37       -0.008  -0.030   0.751   0.713
   38       -0.007  -0.009   0.541   0.526
   39       -0.018  -0.041   0.765   0.706
   40       -0.009  -0.023   0.723   0.690
   41       -0.004  -0.011   0.515   0.501
   42       -0.012  -0.026   0.737   0.699
   43       -0.010  -0.014   0.439   0.415
   44       -0.013  -0.031   0.747   0.704
   45       -0.012  -0.036   0.710   0.663
   46       -0.011  -0.025   0.724   0.688
   47       -0.004  -0.009   0.397   0.384
   48       -0.011  -0.035   0.769   0.723
   49       -0.010  -0.027   0.733   0.696
   50        0.007  -0.008   2.803   2.803
   51        0.005  -0.013   2.750   2.743
   52        0.003  -0.018   2.782   2.767
   53        0.004  -0.012   2.786   2.778
   54        0.015  -0.007   2.920   2.929
   55        0.016   0.006   2.757   2.779
   56       -0.003  -0.027   2.681   2.650
   57        0.012  -0.009   2.921   2.924
   58        0.019   0.007   2.735   2.762
   59       -0.001  -0.023   2.709   2.685
   60        0.005  -0.017   2.759   2.747
   61        0.007  -0.006   2.825   2.826
   62        0.005  -0.009   2.822   2.818
   63        0.019  -0.005   2.953   2.967
   64        0.018   0.009   2.556   2.583
   65        0.002   0.038   0.000   0.040
   66        0.002   0.096   0.000   0.097
   67        0.002   0.097   0.000   0.099
   68        0.002   0.068   0.000   0.070
   69        0.002   0.100   0.000   0.102
--------------------------------------------------
tot         -0.462  -1.093  74.580  73.026
 
 BZINTS: Fermi energy:  0.253322;640.000000 electrons
         Band energy:***********;  BLOECHL correction: -0.042480

 total amount of memory used by VASP MPI-rank0   115777. kBytes
=======================================================================

   base      :      30000. kBytes
   nonlr-proj:      13878. kBytes
   fftplans  :       6402. kBytes
   grid      :      17692. kBytes
   one-center:         93. kBytes
   wavefun   :      47712. kBytes
 
  
  
 General timing and accounting informations for this job:
 ========================================================
  
                  Total CPU time used (sec):     1399.031
                            User time (sec):     1225.216
                          System time (sec):      173.815
                         Elapsed time (sec):     1525.890
  
                   Maximum memory used (kb):      348624.
                   Average memory used (kb):           0.
  
                          Minor page faults:     21093428
                          Major page faults:           20
                 Voluntary context switches:         7163
