       N       E                     dE             d eps       ncg     rms          rms(c)
DAV:   1     0.458034367472E+04    0.45803E+04   -0.26206E+05  8289   0.158E+03
DAV:   2     0.687342077855E+02   -0.45116E+04   -0.42412E+04  8280   0.354E+02
DAV:   3    -0.364440321823E+03   -0.43317E+03   -0.37246E+03  8532   0.149E+02
DAV:   4    -0.382479567215E+03   -0.18039E+02   -0.17688E+02  8829   0.334E+01
DAV:   5    -0.382819445285E+03   -0.33988E+00   -0.33975E+00  9711   0.363E+00    0.316E-01
RMM:   6    -0.382822546675E+03   -0.31014E-02   -0.15801E-01  8558   0.924E-01    0.887E-01
RMM:   7    -0.382826576245E+03   -0.40296E-02   -0.43849E-02 12152   0.325E-01    0.826E-01
RMM:   8    -0.382829360739E+03   -0.27845E-02   -0.38490E-03  8867   0.133E-01    0.110E+00
RMM:   9    -0.382824912715E+03    0.44480E-02   -0.19396E-03  8770   0.101E-01    0.278E-01
RMM:  10    -0.382824988263E+03   -0.75548E-04   -0.67572E-04  8761   0.609E-02    0.228E-01
RMM:  11    -0.382824898483E+03    0.89780E-04   -0.25861E-04  8815   0.385E-02    0.169E-01
RMM:  12    -0.382824850948E+03    0.47536E-04   -0.94301E-05  8784   0.233E-02    0.801E-02
RMM:  13    -0.382824858946E+03   -0.79982E-05   -0.24520E-05  9379   0.968E-03    0.751E-02
RMM:  14    -0.382824875595E+03   -0.16650E-04   -0.78928E-06  8172   0.557E-03    0.629E-02
RMM:  15    -0.382824888320E+03   -0.12725E-04   -0.28754E-06  5697   0.420E-03    0.568E-02
RMM:  16    -0.382824908831E+03   -0.20511E-04   -0.35974E-06  6546   0.464E-03    0.488E-02
RMM:  17    -0.382824929624E+03   -0.20792E-04   -0.31189E-06  5794   0.473E-03    0.347E-02
RMM:  18    -0.382824933854E+03   -0.42307E-05   -0.14702E-06  4979   0.318E-03    0.301E-02
RMM:  19    -0.382824946691E+03   -0.12836E-04   -0.16021E-06  5014   0.344E-03    0.213E-02
RMM:  20    -0.382824948741E+03   -0.20504E-05   -0.70016E-07  4908   0.230E-03    0.176E-02
RMM:  21    -0.382824951352E+03   -0.26107E-05   -0.46155E-07  4799   0.179E-03    0.151E-02
RMM:  22    -0.382824954701E+03   -0.33487E-05   -0.39789E-07  4843   0.168E-03    0.110E-02
RMM:  23    -0.382824954799E+03   -0.98895E-07   -0.37132E-07  4871   0.158E-03
   1 F= -.39896634E+03 E0= -.39896634E+03  d E =0.000000E+00  mag=    81.9186
