 vasp.5.4.4.18Apr17-6-g9f103f2a35 (build Sep 06 2021 19:49:22) complex          
  
 executed on             LinuxIFC date 2022.01.05  10:02:15
 running on   72 total cores
 distrk:  each k-point on   72 cores,    1 groups
 distr:  one band on NCORES_PER_BAND=  24 cores,    3 groups


--------------------------------------------------------------------------------------------------------


 INCAR:
 POTCAR:    PAW_PBE Ni 02Aug2007                  
 POTCAR:    PAW_PBE Fe 06Sep2000                  

 ----------------------------------------------------------------------------- 
|                                                                             |
|           W    W    AA    RRRRR   N    N  II  N    N   GGGG   !!!           |
|           W    W   A  A   R    R  NN   N  II  NN   N  G    G  !!!           |
|           W    W  A    A  R    R  N N  N  II  N N  N  G       !!!           |
|           W WW W  AAAAAA  RRRRR   N  N N  II  N  N N  G  GGG   !            |
|           WW  WW  A    A  R   R   N   NN  II  N   NN  G    G                |
|           W    W  A    A  R    R  N    N  II  N    N   GGGG   !!!           |
|                                                                             |
|      For optimal performance we recommend to set                            |
|        NCORE= 4 - approx SQRT( number of cores)                             |
|      NCORE specifies how many cores store one orbital (NPAR=cpu/NCORE).     |
|      This setting can  greatly improve the performance of VASP for DFT.     |
|      The default,   NCORE=1            might be grossly inefficient         |
|      on modern multi-core architectures or massively parallel machines.     |
|      Do your own testing !!!!                                               |
|      Unfortunately you need to use the default for GW and RPA calculations. |
|      (for HF NCORE is supported but not extensively tested yet)             |
|                                                                             |
 ----------------------------------------------------------------------------- 

 POTCAR:    PAW_PBE Ni 02Aug2007                  
   VRHFIN =Ni:                                                                  
   LEXCH  = PE                                                                  
   EATOM  =  1077.6739 eV,   79.2068 Ry                                         
                                                                                
   TITEL  = PAW_PBE Ni 02Aug2007                                                
   LULTRA =        F    use ultrasoft PP ?                                      
   IUNSCR =        1    unscreen: 0-lin 1-nonlin 2-no                           
   RPACOR =    2.000    partial core radius                                     
   POMASS =   58.690; ZVAL   =   10.000    mass and valenz                      
   RCORE  =    2.300    outmost cutoff radius                                   
   RWIGS  =    2.430; RWIGS  =    1.286    wigner-seitz radius (au A)           
   ENMAX  =  269.532; ENMIN  =  202.149 eV                                      
   RCLOC  =    1.201    cutoff for local pot                                    
   LCOR   =        T    correct aug charges                                     
   LPAW   =        T    paw PP                                                  
   EAUG   =  544.565                                                            
   DEXC   =    0.000                                                            
   RMAX   =    2.357    core radius for proj-oper                               
   RAUG   =    1.300    factor for augmentation sphere                          
   RDEP   =    2.390    radius for radial grids                                 
   RDEPT  =    1.838    core radius for aug-charge                              
                                                                                
   Atomic configuration                                                         
    9 entries                                                                   
     n  l   j            E        occ.                                          
     1  0  0.50     -8206.4253   2.0000                                         
     2  0  0.50      -976.1748   2.0000                                         
     2  1  1.50      -839.0571   6.0000                                         
     3  0  0.50      -105.9991   2.0000                                         
     3  1  1.50       -66.4603   6.0000                                         
     3  2  2.50        -4.6458   9.0000                                         
     4  0  0.50        -4.4926   1.0000                                         
     4  1  1.50        -4.0817   0.0000                                         
     4  3  2.50        -1.3606   0.0000                                         
   Description                                                                  
     l       E           TYP  RCUT    TYP  RCUT                                 
     2     -4.6457903     23  2.300                                             
     2     -6.0063729     23  2.300                                             
     0     -4.4925590     23  2.300                                             
     0      5.0102601     23  2.300                                             
     1     -2.7211652     23  2.300                                             
     1     16.5183231     23  2.300                                             
  local pseudopotential read in
  partial core-charges read in
  partial kinetic energy density read in
  atomic valenz-charges read in
  non local Contribution for L=           2  read in
    real space projection operators read in
  non local Contribution for L=           2  read in
    real space projection operators read in
  non local Contribution for L=           0  read in
    real space projection operators read in
  non local Contribution for L=           0  read in
    real space projection operators read in
  non local Contribution for L=           1  read in
    real space projection operators read in
  non local Contribution for L=           1  read in
    real space projection operators read in
    PAW grid and wavefunctions read in
 
   number of l-projection  operators is LMAX  =           6
   number of lm-projection operators is LMMAX =          18
 
 POTCAR:    PAW_PBE Fe 06Sep2000                  
   VRHFIN =Fe:  d7 s1                                                           
   LEXCH  = PE                                                                  
   EATOM  =   594.3153 eV,   43.6809 Ry                                         
                                                                                
   TITEL  = PAW_PBE Fe 06Sep2000                                                
   LULTRA =        F    use ultrasoft PP ?                                      
   IUNSCR =        1    unscreen: 0-lin 1-nonlin 2-no                           
   RPACOR =    2.000    partial core radius                                     
   POMASS =   55.847; ZVAL   =    8.000    mass and valenz                      
   RCORE  =    2.300    outmost cutoff radius                                   
   RWIGS  =    2.460; RWIGS  =    1.302    wigner-seitz radius (au A)           
   ENMAX  =  267.882; ENMIN  =  200.911 eV                                      
   RCLOC  =    1.701    cutoff for local pot                                    
   LCOR   =        T    correct aug charges                                     
   LPAW   =        T    paw PP                                                  
   EAUG   =  511.368                                                            
   DEXC   =    0.000                                                            
   RMAX   =    2.356    core radius for proj-oper                               
   RAUG   =    1.300    factor for augmentation sphere                          
   RDEP   =    2.442    radius for radial grids                                 
   RDEPT  =    1.890    core radius for aug-charge                              
                                                                                
   Atomic configuration                                                         
    9 entries                                                                   
     n  l   j            E        occ.                                          
     1  0  0.50     -6993.8440   2.0000                                         
     2  0  0.50      -814.6047   2.0000                                         
     2  1  1.50      -693.3689   6.0000                                         
     3  0  0.50       -89.4732   2.0000                                         
     3  1  1.50       -55.6373   6.0000                                         
     3  2  2.50        -3.8151   7.0000                                         
     4  0  0.50        -4.2551   1.0000                                         
     4  1  1.50        -3.4015   0.0000                                         
     4  3  2.50        -1.3606   0.0000                                         
   Description                                                                  
     l       E           TYP  RCUT    TYP  RCUT                                 
     2     -3.8151135     23  2.300                                             
     2     -5.1756961     23  2.300                                             
     0     -4.2550963     23  2.300                                             
     0      7.2035603     23  2.300                                             
     1     -2.7211652     23  2.300                                             
     1     18.4316424     23  2.300                                             
  local pseudopotential read in
  partial core-charges read in
  partial kinetic energy density read in
  atomic valenz-charges read in
  non local Contribution for L=           2  read in
    real space projection operators read in
  non local Contribution for L=           2  read in
    real space projection operators read in
  non local Contribution for L=           0  read in
    real space projection operators read in
  non local Contribution for L=           0  read in
    real space projection operators read in
  non local Contribution for L=           1  read in
    real space projection operators read in
  non local Contribution for L=           1  read in
    real space projection operators read in
    PAW grid and wavefunctions read in
 
   number of l-projection  operators is LMAX  =           6
   number of lm-projection operators is LMMAX =          18
 
 Optimization of the real space projectors (new method)

 maximal supplied QI-value         = 16.25
 optimisation between [QCUT,QGAM] = [ 11.54, 23.24] = [ 37.28,151.24] Ry 
 Optimized for a Real-space Cutoff    1.45 Angstroem

   l    n(q)    QCUT    max X(q) W(low)/X(q) W(high)/X(q)  e(spline) 
   2      9    11.539    60.317    0.19E-03    0.47E-04    0.16E-06
   2      9    11.539    55.921    0.19E-03    0.48E-04    0.16E-06
   0     10    11.539    51.690    0.80E-04    0.50E-04    0.24E-06
   0     10    11.539    30.015    0.73E-04    0.45E-04    0.22E-06
   1     10    11.539    18.849    0.87E-04    0.16E-03    0.71E-07
   1     10    11.539    14.624    0.73E-04    0.13E-03    0.64E-07
 Optimization of the real space projectors (new method)

 maximal supplied QI-value         = 16.25
 optimisation between [QCUT,QGAM] = [ 11.54, 23.24] = [ 37.28,151.24] Ry 
 Optimized for a Real-space Cutoff    1.53 Angstroem

   l    n(q)    QCUT    max X(q) W(low)/X(q) W(high)/X(q)  e(spline) 
   2     10    11.539    80.901    0.11E-03    0.14E-03    0.21E-06
   2     10    11.539    75.754    0.11E-03    0.14E-03    0.22E-06
   0     11    11.539    58.752    0.52E-04    0.18E-04    0.33E-06
   0     11    11.539    30.679    0.44E-04    0.16E-04    0.30E-06
   1     10    11.539    17.977    0.53E-04    0.29E-04    0.13E-06
   1     10    11.539    13.559    0.44E-04    0.25E-04    0.11E-06
  PAW_PBE Ni 02Aug2007                  :
 energy of atom  1       EATOM=-1077.6739
 kinetic energy error for atom=    0.0030 (will be added to EATOM!!)
  PAW_PBE Fe 06Sep2000                  :
 energy of atom  2       EATOM= -594.3153
 kinetic energy error for atom=    0.0026 (will be added to EATOM!!)
 
 
 POSCAR: POSCAR                                  
  positions in direct lattice
  velocities in cartesian coordinates
 exchange correlation table for  LEXCH =        8
   RHO(1)=    0.500       N(1)  =     2000
   RHO(2)=  100.500       N(2)  =     4000
 


--------------------------------------------------------------------------------------------------------


 ion  position               nearest neighbor table
   1  0.001  0.001  0.193-  35 2.48   5 2.50  46 2.50  28 2.50   2 2.50   6 2.50   7 2.50  23 2.50
                            41 2.50  15 2.51   4 2.51  44 2.51
   2  0.250  0.000  0.193-  35 2.49  23 2.50  48 2.50  37 2.50   1 2.50   8 2.50   6 2.51   3 2.51
                            36 2.51  24 2.52   9 2.52  46 2.53
   3  0.499  0.999  0.193-  36 2.49  48 2.49  13 2.50  64 2.50   8 2.50   4 2.50  26 2.51   2 2.51
                            24 2.51  39 2.51  10 2.52  11 2.54
   4  0.749  0.999  0.193-  41 2.49  64 2.50  28 2.50   5 2.50  42 2.50   3 2.50  26 2.50  13 2.51
                            10 2.51   1 2.51  12 2.51  15 2.51
   5  0.999  0.249  0.193-  58 2.46  10 2.50   1 2.50  12 2.50   4 2.50   7 2.51  50 2.51  15 2.51
                            17 2.51   6 2.51  19 2.51  18 2.52
   6  0.250  0.250  0.193-  53 2.49   1 2.50  50 2.50   2 2.51  19 2.51   5 2.51   7 2.51   9 2.52
                             8 2.52  46 2.52  52 2.53  51 2.55
   7  0.083  0.167  0.290-  47 2.45  20 2.46  16 2.47   9 2.50  52 2.50  35 2.50   1 2.50  12 2.51
                             5 2.51  41 2.51   6 2.51  18 2.52
   8  0.501  0.249  0.193-  56 2.47   3 2.50  10 2.50   2 2.50  53 2.50  11 2.51  51 2.51   6 2.52
                             9 2.52  22 2.52  21 2.53  48 2.54
   9  0.333  0.167  0.290-  47 2.48  35 2.50  52 2.50  49 2.50  11 2.50   7 2.50  36 2.51  22 2.51
                             6 2.52   8 2.52   2 2.52  54 2.53
  10  0.751  0.250  0.194-  58 2.48  56 2.48  12 2.49  55 2.49   5 2.50   8 2.50   4 2.51  17 2.52
                             3 2.52  13 2.52  21 2.52  11 2.52
  11  0.582  0.168  0.291-  49 2.45  14 2.47  22 2.49  36 2.50   9 2.50   8 2.51  55 2.51  57 2.52
                            10 2.52  12 2.52  64 2.52   3 2.54
  12  0.834  0.167  0.290-  16 2.46  59 2.47  10 2.49  14 2.49  18 2.49   5 2.50   7 2.51  41 2.51
                            55 2.51   4 2.51  64 2.52  11 2.52
  13  0.666  0.083  0.097-  58 2.47  48 2.48  56 2.49   3 2.50  39 2.50  42 2.51   4 2.51  10 2.52
                            15 2.52
  14  0.666  0.083  0.385-  59 2.47  11 2.47  49 2.48  43 2.49  12 2.49  64 2.49  40 2.50  57 2.50
                            16 2.51
  15  0.916  0.082  0.097-  46 2.46  58 2.47  44 2.50  42 2.50   1 2.51   5 2.51   4 2.51  19 2.51
                            13 2.52
  16  0.914  0.080  0.383-  41 2.45  12 2.46  59 2.47  47 2.47   7 2.47  43 2.47  45 2.48  14 2.51
                            20 2.54
  17  0.002  0.500  0.192-  50 2.48  24 2.48  58 2.49  25 2.50   5 2.51  18 2.51  33 2.51  21 2.52
                            10 2.52  23 2.52  55 2.53  60 2.53
  18  0.081  0.417  0.290-  61 2.46  20 2.48  55 2.49  12 2.49  25 2.50  59 2.50  27 2.50  17 2.51
                             5 2.52   7 2.52  50 2.52  52 2.53
  19  0.166  0.334  0.097-  58 2.49  50 2.49  30 2.50  46 2.50   6 2.51   5 2.51  15 2.51  53 2.52
                            60 2.54
  20  0.167  0.334  0.383-  52 2.43   7 2.46  18 2.48  59 2.49  47 2.50  31 2.51  61 2.53  16 2.54
                            54 2.54
  21  0.752  0.502  0.192-  51 2.46  56 2.47  32 2.50  28 2.50  23 2.50  33 2.51  55 2.51  17 2.52
                            10 2.52   8 2.53  62 2.54  22 2.55
  22  0.584  0.417  0.290-  63 2.47  11 2.49  55 2.49  51 2.50  32 2.51  29 2.51   9 2.51  52 2.52
                            54 2.52   8 2.52  57 2.53  21 2.55
  23  0.001  0.751  0.192-  44 2.49  25 2.49   2 2.50  24 2.50  37 2.50  35 2.50  21 2.50   1 2.50
                            28 2.50  32 2.51  17 2.52  33 2.52
  24  0.249  0.749  0.192-  17 2.48  25 2.49  39 2.50  27 2.50  23 2.50  50 2.50  60 2.50   3 2.51
                            37 2.51  26 2.51   2 2.52  36 2.53
  25  0.084  0.668  0.288-  38 2.47  34 2.47  61 2.48  24 2.49  27 2.49  23 2.49  18 2.50  17 2.50
                            36 2.51  32 2.51  35 2.51  55 2.51
  26  0.500  0.749  0.192-  42 2.49  39 2.49  29 2.50  27 2.50   4 2.50   3 2.51  51 2.51  24 2.51
                            28 2.51  50 2.51  30 2.51  64 2.52
  27  0.332  0.666  0.288-  61 2.45  50 2.49  25 2.49  40 2.49  24 2.50  31 2.50  18 2.50  26 2.50
                            36 2.51  52 2.51  64 2.52  29 2.52
  28  0.751  0.751  0.193-  51 2.47  32 2.49  29 2.50  44 2.50   4 2.50  21 2.50   1 2.50  41 2.50
                            23 2.50  42 2.50  26 2.51  62 2.52
  29  0.583  0.666  0.288-  63 2.46  31 2.46  51 2.47  28 2.50  26 2.50  43 2.50  41 2.51  64 2.51
                            22 2.51  52 2.51  32 2.51  27 2.52
  30  0.417  0.582  0.095-  19 2.50  62 2.50  39 2.51  53 2.51  42 2.51  60 2.51  26 2.51  50 2.53
                            51 2.55
  31  0.419  0.583  0.383-  52 2.43  29 2.46  63 2.48  27 2.50  43 2.51  40 2.51  20 2.51  54 2.52
                            61 2.52
  32  0.834  0.667  0.288-  63 2.46  45 2.46  34 2.47  28 2.49  55 2.49  21 2.50  25 2.51  23 2.51
                            22 2.51  29 2.51  35 2.51  41 2.52
  33  0.917  0.583  0.095-  60 2.50  21 2.51  44 2.51  56 2.51  62 2.51  17 2.51  37 2.51  23 2.52
                            58 2.56
  34  0.918  0.583  0.382-  55 2.44  32 2.47  25 2.47  57 2.51  61 2.51  63 2.51  45 2.51  38 2.52
                            59 2.57
  35  0.084  0.918  0.288-  38 2.44  45 2.47   1 2.48  47 2.48   2 2.49   9 2.50  23 2.50   7 2.50
                            25 2.51  32 2.51  36 2.51  41 2.52
  36  0.334  0.917  0.289-  38 2.45  49 2.45  40 2.48   3 2.49  64 2.50  11 2.50  25 2.51  27 2.51
                             9 2.51   2 2.51  35 2.51  24 2.53
  37  0.167  0.835  0.096-  48 2.47  60 2.49  44 2.49  23 2.50  46 2.50   2 2.50  24 2.51  33 2.51
                            39 2.53
  38  0.167  0.836  0.382-  35 2.44  36 2.45  49 2.46  25 2.47  47 2.49  45 2.50  61 2.51  34 2.52
                            40 2.55
  39  0.417  0.832  0.097-  60 2.47  48 2.47  26 2.49  42 2.49  24 2.50  13 2.50  30 2.51   3 2.51
                            37 2.53
  40  0.419  0.833  0.383-  64 2.46  49 2.47  43 2.47  61 2.48  36 2.48  27 2.49  14 2.50  31 2.51
                            38 2.55
  41  0.832  0.917  0.289-  16 2.45  45 2.45  43 2.47   4 2.49  64 2.50  28 2.50   1 2.50  29 2.51
                            12 2.51   7 2.51  32 2.52  35 2.52
  42  0.666  0.833  0.097-  62 2.47  26 2.49  39 2.49  15 2.50   4 2.50  28 2.50  13 2.51  30 2.51
                            44 2.52
  43  0.667  0.835  0.384-  64 2.46  16 2.47  41 2.47  40 2.47  63 2.48  14 2.49  29 2.50  31 2.51
                            45 2.51
  44  0.917  0.833  0.097-  62 2.46  46 2.47  23 2.49  37 2.49  28 2.50  15 2.50  33 2.51   1 2.51
                            42 2.52
  45  0.916  0.833  0.382-  41 2.45  63 2.45  32 2.46  35 2.47  47 2.47  16 2.48  38 2.50  34 2.51
                            43 2.51
  46  0.162  0.082  0.096-  15 2.46  44 2.47   1 2.50  37 2.50  19 2.50   6 2.52  53 2.53   2 2.53
                            48 2.57
  47  0.161  0.082  0.384-   7 2.45  16 2.47  45 2.47  35 2.48   9 2.48  38 2.49  20 2.50  54 2.55
                            49 2.57
  48  0.416  0.078  0.096-  37 2.47  39 2.47  13 2.48   3 2.49   2 2.50  56 2.54   8 2.54  53 2.54
                            46 2.57
  49  0.415  0.077  0.384-  36 2.45  11 2.45  38 2.46  40 2.47  14 2.48   9 2.50  54 2.54  57 2.55
                            47 2.57
  50  0.248  0.499  0.193-  17 2.48  27 2.49  19 2.49  24 2.50   6 2.50   5 2.51  26 2.51  18 2.52
                            30 2.53  52 2.54  60 2.55  51 2.57
  51  0.506  0.503  0.193-  21 2.46  29 2.47  28 2.47  22 2.50  26 2.51   8 2.51  53 2.53  62 2.53
                            30 2.55   6 2.55  52 2.56  50 2.57
  52  0.333  0.416  0.291-  31 2.43  20 2.43   9 2.50   7 2.50  27 2.51  29 2.51  22 2.52   6 2.53
                            18 2.53  54 2.54  50 2.54  51 2.56
  53  0.416  0.331  0.097-   6 2.49   8 2.50  30 2.51  56 2.51  19 2.52  51 2.53  46 2.53  48 2.54
                            62 2.56
  54  0.420  0.332  0.388-  57 2.48  22 2.52  31 2.52   9 2.53  49 2.54  52 2.54  20 2.54  47 2.55
                            63 2.56
  55  0.833  0.418  0.289-  34 2.44  18 2.49  10 2.49  22 2.49  32 2.49  25 2.51  12 2.51  11 2.51
                            21 2.51  17 2.53  57 2.54  59 2.56
  56  0.667  0.332  0.099-  21 2.47   8 2.47  10 2.48  13 2.49  58 2.51  33 2.51  53 2.51  48 2.54
                            62 2.57
  57  0.668  0.334  0.388-  54 2.48  14 2.50  34 2.51  11 2.52  59 2.52  22 2.53  55 2.54  49 2.55
                            63 2.56
  58  0.914  0.327  0.099-   5 2.46  15 2.47  13 2.47  10 2.48  19 2.49  17 2.49  56 2.51  33 2.56
                            60 2.59
  59  0.916  0.326  0.386-  16 2.47  14 2.47  12 2.47  20 2.49  18 2.50  57 2.52  55 2.56  34 2.57
                            61 2.58
  60  0.169  0.588  0.094-  39 2.47  37 2.49  33 2.50  24 2.50  30 2.51  17 2.53  19 2.54  50 2.55
                            58 2.59
  61  0.170  0.587  0.383-  27 2.45  18 2.46  25 2.48  40 2.48  34 2.51  38 2.51  31 2.52  20 2.53
                            59 2.58
  62  0.670  0.589  0.095-  44 2.46  42 2.47  30 2.50  33 2.51  28 2.52  51 2.53  21 2.54  53 2.56
                            56 2.57
  63  0.671  0.590  0.383-  45 2.45  32 2.46  29 2.46  22 2.47  43 2.48  31 2.48  34 2.51  54 2.56
                            57 2.56
  64  0.583  0.916  0.289-  40 2.46  43 2.46  14 2.49  36 2.50   4 2.50  41 2.50   3 2.50  29 2.51
                            12 2.52  27 2.52  26 2.52  11 2.52
 

IMPORTANT INFORMATION: All symmetrisations will be switched off!
NOSYMM: (Re-)initialisation of all symmetry stuff for point group C_1.

 
 

Automatic generation of k-mesh.
 generate k-points for:    3    3    1
Space group operators:
 irot       det(A)        alpha          n_x          n_y          n_z        tau_x        tau_y        tau_z
    1     1.000000     0.000000     1.000000     0.000000     0.000000     0.000000     0.000000     0.000000
 
 Subroutine IBZKPT returns following result:
 ===========================================
 
 Found      5 irreducible k-points:
 
 Following reciprocal coordinates:
            Coordinates               Weight
  0.000000  0.000000  0.000000      1.000000
  0.333333  0.000000  0.000000      2.000000
  0.000000  0.333333  0.000000      2.000000
  0.333333  0.333333  0.000000      2.000000
 -0.333333  0.333333  0.000000      2.000000
 
 Following cartesian coordinates:
            Coordinates               Weight
  0.000000  0.000000  0.000000      1.000000
  0.033244  0.019194  0.000000      2.000000
  0.000000  0.038387  0.000000      2.000000
  0.033244  0.057581  0.000000      2.000000
 -0.033244  0.019194  0.000000      2.000000
 
 TETIRR: Found     24 inequivalent tetrahedra from       54


--------------------------------------------------------------------------------------------------------




 Dimension of arrays:
   k-points           NKPTS =      5   k-points in BZ     NKDIM =      5   number of bands    NBANDS=    414
   number of dos      NEDOS =    301   number of ions     NIONS =     64
   non local maximal  LDIM  =      6   non local SUM 2l+1 LMDIM =     18
   total plane-waves  NPLWV = ******
   max r-space proj   IRMAX =   8418   max aug-charges    IRDMAX=  19919
   dimension x,y,z NGX =    80 NGY =   80 NGZ =  160
   dimension x,y,z NGXF=   160 NGYF=  160 NGZF=  320
   support grid    NGXF=   160 NGYF=  160 NGZF=  320
   ions per type =              45  19
   NGX,Y,Z   is equivalent  to a cutoff of  13.26, 13.26, 12.52 a.u.
   NGXF,Y,Z  is equivalent  to a cutoff of  26.53, 26.53, 25.04 a.u.

 SYSTEM =  SQS-NiFe                                
 POSCAR =  POSCAR                                  

 Startparameter for this run:
   NWRITE =      2    write-flag & timer
   PREC   = accura    normal or accurate (medium, high low for compatibility)
   ISTART =      0    job   : 0-new  1-cont  2-samecut
   ICHARG =      1    charge: 1-file 2-atom 10-const
   ISPIN  =      2    spin polarized calculation?
   LNONCOLLINEAR =      F non collinear calculations
   LSORBIT =      F    spin-orbit coupling
   INIWAV =      1    electr: 0-lowe 1-rand  2-diag
   LASPH  =      F    aspherical Exc in radial PAW
   METAGGA=      F    non-selfconsistent MetaGGA calc.

 Electronic Relaxation 1
   ENCUT  =  520.0 eV  38.22 Ry    6.18 a.u.  18.64 18.64 39.50*2*pi/ulx,y,z
   ENINI  =  520.0     initial cutoff
   ENAUG  =  544.6 eV  augmentation charge cutoff
   NELM   =    200;   NELMIN=  2; NELMDL= -5     # of ELM steps 
   EDIFF  = 0.1E-05   stopping-criterion for ELM
   LREAL  =      T    real-space projection
   NLSPLINE    = F    spline interpolate recip. space projectors
   LCOMPAT=      F    compatible to vasp.4.4
   GGA_COMPAT  = T    GGA compatible to vasp.4.4-vasp.4.6
   LMAXPAW     = -100 max onsite density
   LMAXMIX     =    2 max onsite mixed and CHGCAR
   VOSKOWN=      0    Vosko Wilk Nusair interpolation
   ROPT   =   -0.00025  -0.00025
 Ionic relaxation
   EDIFFG = -.2E-01   stopping-criterion for IOM
   NSW    =      0    number of steps for IOM
   NBLOCK =      1;   KBLOCK =      1    inner block; outer block 
   IBRION =     -1    ionic relax: 0-MD 1-quasi-New 2-CG
   NFREE  =      0    steps in history (QN), initial steepest desc. (CG)
   ISIF   =      2    stress and relaxation
   IWAVPR =     10    prediction:  0-non 1-charg 2-wave 3-comb
   ISYM   =      0    0-nonsym 1-usesym 2-fastsym
   LCORR  =      T    Harris-Foulkes like correction to forces

   POTIM  = 0.5000    time-step for ionic-motion
   TEIN   =    0.0    initial temperature
   TEBEG  =    0.0;   TEEND  =   0.0 temperature during run
   SMASS  =  -3.00    Nose mass-parameter (am)
   estimated Nose-frequenzy (Omega)   =  0.10E-29 period in steps =****** mass=  -0.230E-26a.u.
   SCALEE = 1.0000    scale energy and forces
   NPACO  =    256;   APACO  = 16.0  distance and # of slots for P.C.
   PSTRESS=    0.0 pullay stress

  Mass of Ions in am
   POMASS =  58.69 55.85
  Ionic Valenz
   ZVAL   =  10.00  8.00
  Atomic Wigner-Seitz radii
   RWIGS  =  -1.00 -1.00
  virtual crystal weights 
   VCA    =   1.00  1.00
   NELECT =     602.0000    total number of electrons
   NUPDOWN=      -1.0000    fix difference up-down

 DOS related values:
   EMIN   =  10.00;   EMAX   =-10.00  energy-range for DOS
   EFERMI =   0.00
   ISMEAR =    -5;   SIGMA  =   0.20  broadening in eV -4-tet -1-fermi 0-gaus

 Electronic relaxation 2 (details)
   IALGO  =     68    algorithm
   LDIAG  =      T    sub-space diagonalisation (order eigenvalues)
   LSUBROT=      F    optimize rotation matrix (better conditioning)
   TURBO    =      0    0=normal 1=particle mesh
   IRESTART =      0    0=no restart 2=restart with 2 vectors
   NREBOOT  =      0    no. of reboots
   NMIN     =      0    reboot dimension
   EREF     =   0.00    reference energy to select bands
   IMIX   =      4    mixing-type and parameters
     AMIX     =   0.40;   BMIX     =  1.00
     AMIX_MAG =   1.60;   BMIX_MAG =  1.00
     AMIN     =   0.10
     WC   =   100.;   INIMIX=   1;  MIXPRE=   1;  MAXMIX= -45

 Intra band minimization:
   WEIMIN = 0.0000     energy-eigenvalue tresh-hold
   EBREAK =  0.60E-09  absolut break condition
   DEPER  =   0.30     relativ break condition  

   TIME   =   0.40     timestep for ELM

  volume/ion in A,a.u.               =      28.90       195.03
  Fermi-wavevector in a.u.,A,eV,Ry     =   1.126111  2.128040 17.253886  1.268125
  Thomas-Fermi vector in A             =   2.262791
 
 Write flags
   LWAVE        =      F    write WAVECAR
   LDOWNSAMPLE  =      F    k-point downsampling of WAVECAR
   LCHARG       =      F    write CHGCAR
   LVTOT        =      F    write LOCPOT, total local potential
   LVHAR        =      F    write LOCPOT, Hartree potential only
   LELF         =      F    write electronic localiz. function (ELF)
   LORBIT       =     11    0 simple, 1 ext, 2 COOP (PROOUT), +10 PAW based schemes


 Dipole corrections
   LMONO  =      F    monopole corrections only (constant potential shift)
   LDIPOL =      T    correct potential (dipole corrections)
   IDIPOL =      3    1-x, 2-y, 3-z, 4-all directions 
   EPSILON=  1.0000000 bulk dielectric constant

 Exchange correlation treatment:
   GGA     =    --    GGA type
   LEXCH   =     8    internal setting for exchange type
   VOSKOWN=      0    Vosko Wilk Nusair interpolation
   LHFCALC =     F    Hartree Fock is set to
   LHFONE  =     F    Hartree Fock one center treatment
   AEXX    =    0.0000 exact exchange contribution

 Linear response parameters
   LEPSILON=     F    determine dielectric tensor
   LRPA    =     F    only Hartree local field effects (RPA)
   LNABLA  =     F    use nabla operator in PAW spheres
   LVEL    =     F    velocity operator in full k-point grid
   LINTERFAST=   F  fast interpolation
   KINTER  =     0    interpolate to denser k-point grid
   CSHIFT  =0.1000    complex shift for real part using Kramers Kronig
   OMEGAMAX=  -1.0    maximum frequency
   DEG_THRESHOLD= 0.2000000E-02 threshold for treating states as degnerate
   RTIME   =   -0.100 relaxation time in fs
  (WPLASMAI=    0.000 imaginary part of plasma frequency in eV, 0.658/RTIME)
   DFIELD  = 0.0000000 0.0000000 0.0000000 field for delta impulse in time
 
 Orbital magnetization related:
   ORBITALMAG=     F  switch on orbital magnetization
   LCHIMAG   =     F  perturbation theory with respect to B field
   DQ        =  0.001000  dq finite difference perturbation B field
   LLRAUG    =     F  two centre corrections for induced B field



--------------------------------------------------------------------------------------------------------


 Static calculation
 charge density and potential will be updated during run
 spin polarized calculation
 RMM-DIIS sequential band-by-band and
  variant of blocked Davidson during initial phase
 perform sub-space diagonalisation
    before iterative eigenvector-optimisation
 modified Broyden-mixing scheme, WC =      100.0
 initial mixing is a Kerker type mixing with AMIX =  0.4000 and BMIX =      1.0000
 Hartree-type preconditioning will be used
 using additional bands          113
 real space projection scheme for non local part
 use partial core corrections
 calculate Harris-corrections to forces 
   (improved forces if not selfconsistent)
 use gradient corrections 
 use of overlap-Matrix (Vanderbilt PP)
 Fermi weights with tetrahedron method with Bloechl corrections


--------------------------------------------------------------------------------------------------------


  energy-cutoff  :      520.00
  volume of cell :     1849.60
      direct lattice vectors                 reciprocal lattice vectors
    10.026770000  0.000000000  0.000000000     0.099733015  0.057580883  0.000000000
    -5.013385000  8.683437540  0.000000000     0.000000000  0.115161766  0.000000000
     0.000000000  0.000000000 21.243458220     0.000000000  0.000000000  0.047073315

  length of vectors
    10.026770000 10.026770002 21.243458220     0.115161766  0.115161766  0.047073315


 
 k-points in units of 2pi/SCALE and weight: read from INCAR                         
   0.00000000  0.00000000  0.00000000       0.111
   0.03324434  0.01919363  0.00000000       0.222
   0.00000000  0.03838726  0.00000000       0.222
   0.03324434  0.05758088  0.00000000       0.222
  -0.03324434  0.01919363  0.00000000       0.222
 
 k-points in reciprocal lattice and weights: read from INCAR                         
   0.00000000  0.00000000  0.00000000       0.111
   0.33333333  0.00000000  0.00000000       0.222
   0.00000000  0.33333333  0.00000000       0.222
   0.33333333  0.33333333  0.00000000       0.222
  -0.33333333  0.33333333  0.00000000       0.222
 
 position of ions in fractional coordinates (direct lattice) 
   0.00052900  0.00053000  0.19343852
   0.25001300  0.00028700  0.19258269
   0.49948700  0.99908000  0.19330643
   0.74930200  0.99919300  0.19338794
   0.99864000  0.24850700  0.19328475
   0.25012600  0.25021600  0.19292722
   0.08336116  0.16673942  0.28971363
   0.50064200  0.24891300  0.19337349
   0.33251558  0.16672146  0.29003809
   0.75052500  0.25006200  0.19419811
   0.58205899  0.16750077  0.29082113
   0.83368973  0.16749147  0.28964068
   0.66558100  0.08305500  0.09724336
   0.66617656  0.08342066  0.38474791
   0.91639700  0.08203100  0.09671153
   0.91438979  0.07994219  0.38301659
   0.00183400  0.50047500  0.19189796
   0.08079342  0.41707357  0.28975401
   0.16611800  0.33395200  0.09673755
   0.16715157  0.33354935  0.38338823
   0.75170200  0.50186900  0.19211445
   0.58406285  0.41660187  0.29044328
   0.00109100  0.75115300  0.19219162
   0.24902600  0.74885700  0.19200086
   0.08424204  0.66762005  0.28785500
   0.49972500  0.74917300  0.19214971
   0.33170912  0.66553522  0.28798041
   0.75128300  0.75093600  0.19293993
   0.58313031  0.66622498  0.28829452
   0.41661000  0.58200200  0.09548198
   0.41935871  0.58261286  0.38279187
   0.83383535  0.66665020  0.28833359
   0.91708300  0.58323900  0.09545972
   0.91763157  0.58333526  0.38229636
   0.08396559  0.91764489  0.28819018
   0.33447158  0.91703463  0.28906484
   0.16670900  0.83524200  0.09602941
   0.16674247  0.83610271  0.38151894
   0.41703500  0.83214900  0.09672078
   0.41888676  0.83263147  0.38348745
   0.83247151  0.91680478  0.28920011
   0.66623900  0.83337000  0.09700230
   0.66682335  0.83549780  0.38370170
   0.91705900  0.83319500  0.09682368
   0.91645265  0.83340763  0.38208738
   0.16168500  0.08211500  0.09597016
   0.16119563  0.08169737  0.38371049
   0.41607500  0.07807100  0.09643550
   0.41546189  0.07698330  0.38406887
   0.24829900  0.49904600  0.19264223
   0.50648100  0.50259500  0.19338476
   0.33280719  0.41592383  0.29091249
   0.41638400  0.33144300  0.09718295
   0.41981185  0.33191054  0.38802946
   0.83317826  0.41773702  0.28922934
   0.66732400  0.33240600  0.09901110
   0.66787905  0.33367392  0.38787520
   0.91446400  0.32695500  0.09862235
   0.91570289  0.32635611  0.38629279
   0.16914200  0.58833400  0.09414663
   0.16973924  0.58690001  0.38263309
   0.66961600  0.58928900  0.09452787
   0.67051604  0.59025680  0.38276460
   0.58303765  0.91622621  0.28929666
 
 position of ions in cartesian coordinates  (Angst):
   0.00264707  0.00460222  4.10930312
   2.50538401  0.00249215  4.09112233
  -0.00053142  8.67544878  4.10649707
   2.50373962  8.67643001  4.10822862
   8.76727233  2.15789501  4.10603651
   1.25352673  2.17273501  4.09844134
  -0.00008572  1.44787133  6.15451950
   3.77192549  2.16142049  4.10792166
   2.49821842  1.44771536  6.16141205
   6.27168447  2.17139776  4.12543944
   4.99642574  1.45448248  6.17804660
   7.51951594  1.45440173  6.15296979
   6.25724091  0.72120290  2.06578526
   6.26137924  0.72437813  8.17337617
   8.77724896  0.71231106  2.05448735
   8.76759519  0.69417299  8.13659697
  -2.49068476  4.34584340  4.07657630
  -1.28085339  3.62163230  6.15537714
  -0.00860297  2.89985133  2.05504010
   0.00377900  2.89635494  8.14449178
   5.02108055  4.35794811  4.08117529
   3.76767827  3.61753630  6.17001973
  -3.75487998  6.52259016  4.08281465
  -1.25738202  6.50265299  4.07876225
  -2.50236079  5.79723699  6.11503560
   1.25473496  6.50539695  4.08192434
  -0.01061324  5.77913355  6.11769986
   3.76821057  6.52070585  4.09871134
   2.50687116  5.78512297  6.12437255
   1.25945255  5.05377802  2.02836745
   1.28395072  5.05908238  8.13182306
   5.01850119  5.78881541  6.12520260
   6.27137866  5.06451943  2.02789457
   6.27639649  5.06535531  8.12129671
  -3.75860350  7.96831208  6.12215613
  -1.24377805  7.96301289  6.14073686
  -2.51583691  7.25277174  2.03999676
  -2.51981641  7.26024565  8.10478159
   0.00963071  7.22591387  2.05468385
   0.02577914  7.23010333  8.14659968
   3.75070501  7.96101705  6.14361044
   2.50222056  7.23651634  2.06066431
   2.49741217  7.25499300  8.15115098
   5.01801235  7.23499674  2.05686980
   5.01086662  7.23684307  8.11685725
   1.20950420  0.71304047  2.03873808
   1.20669108  0.70941405  8.15133784
   3.78048835  0.67792465  2.04862352
   3.77979393  0.66847964  8.15895107
  -0.01227277  4.33343477  4.09238716
   2.55866626  4.36425229  4.10816107
   1.25179489  3.61164856  6.17998729
   2.51333524  2.87806459  2.06450194
   2.54536160  2.88212442  8.24308761
   6.25981026  3.62739336  6.14423140
   5.02462501  2.88642674  2.10333817
   5.02383377  2.89743666  8.23981069
   7.52996891  2.83909332  2.09507977
   7.54539345  2.83389292  8.20619468
  -1.25359692  5.10876154  2.00000000
  -1.24041935  5.09630958  8.12844999
   3.75975299  5.11705422  2.00809886
   3.76392557  5.12545806  8.13124383
   1.25258962  7.95599309  6.14566150
 


--------------------------------------------------------------------------------------------------------


 k-point  1 :   0.0000 0.0000 0.0000  plane waves:   49897
 k-point  2 :   0.3333 0.0000 0.0000  plane waves:   49798
 k-point  3 :   0.0000 0.3333 0.0000  plane waves:   49798
 k-point  4 :   0.3333 0.3333 0.0000  plane waves:   49764
 k-point  5 :  -0.3333 0.3333 0.0000  plane waves:   49798

 maximum and minimum number of plane-waves per node :      2104     2054

 maximum number of plane-waves:     49897
 maximum index in each direction: 
   IXMAX=   18   IYMAX=   18   IZMAX=   39
   IXMIN=  -18   IYMIN=  -18   IZMIN=  -39


 real space projection operators:
  total allocation   :      64717.59 KBytes
  max/ min on nodes  :       3265.31       2375.86


 parallel 3D FFT for wavefunctions:
    minimum data exchange during FFTs selected (reduces bandwidth)
 parallel 3D FFT for charge:
    minimum data exchange during FFTs selected (reduces bandwidth)


 total amount of memory used by VASP MPI-rank0   113068. kBytes
=======================================================================

   base      :      30000. kBytes
   nonlr-proj:      13088. kBytes
   fftplans  :       6402. kBytes
   grid      :      16455. kBytes
   one-center:         93. kBytes
   wavefun   :      47030. kBytes
 
     INWAV:  cpu time    0.0010: real time    0.0002
 Broyden mixing: mesh for mixing (old mesh)
   NGX = 37   NGY = 37   NGZ = 79
  (NGX  =160   NGY  =160   NGZ  =320)
  gives a total of 108151 points

 initial charge density was supplied:
 number of electron     602.0000008 magnetization      81.9189115
 keeping initial charge density in first step


--------------------------------------------------------------------------------------------------------


 Maximum index for non-local projection operator          766
 Maximum index for augmentation-charges         1119 (set IRDMAX)


--------------------------------------------------------------------------------------------------------


 First call to EWALD:  gamma=   0.144
 Maximum number of real-space cells 4x 4x 2
 Maximum number of reciprocal cells 2x 2x 4

    FEWALD:  cpu time    0.0030: real time    0.0032


--------------------------------------- Iteration      1(   1)  ---------------------------------------


    POTLOK:  cpu time    0.2620: real time    0.2669
    SETDIJ:  cpu time    0.0180: real time    0.0197
     EDDAV:  cpu time   24.7202: real time   24.8734
 BZINTS: Fermi energy: 11.254106;602.000000 electrons
         Band energy:3751.482405;  BLOECHL correction: -0.012228
       DOS:  cpu time    0.0430: real time    0.0423
    --------------------------------------------
      LOOP:  cpu time   25.0432: real time   25.2024

 eigenvalue-minimisations  :  8289
 total energy-change (2. order) : 0.4580344E+04  (-0.2620598E+05)
 number of electron     602.0000008 magnetization      81.9189115
 augmentation part      602.0000008 magnetization      81.9189115

 DIPCOR: dipole corrections for dipol
 direction  3 min pos   237,
 dipolmoment           0.000000      0.000000     -0.004011 electrons x Angstroem
 Tr[quadrupol]     -9834.938822

 energy correction for charged system         0.000000 eV
 dipol+quadrupol energy correction           -0.000001 eV
 added-field ion interaction          0.014859 eV  (added to PSCEN)


 Free energy of the ion-electron system (eV)
  ---------------------------------------------------
  alpha Z        PSCENC =      1281.22551652
  Ewald energy   TEWEN  =    214108.57347568
  -Hartree energ DENC   =   -272556.95618574
  -exchange      EXHF   =         0.00000000
  -V(xc)+E(xc)   XCENC  =      1461.40382402
  PAW double counting   =     63746.80906999   -66999.32673687
  entropy T*S    EENTRO =         0.00000000
  eigenvalues    EBANDS =      3751.48240464
  atomic energy  EATOM  =     59787.13230648
  Solvation  Ediel_sol  =         0.00000000
  ---------------------------------------------------
  free energy    TOTEN  =      4580.34367472 eV

  energy without entropy =     4580.34367472  energy(sigma->0) =     4580.34367472


--------------------------------------------------------------------------------------------------------




--------------------------------------- Iteration      1(   2)  ---------------------------------------


     EDDAV:  cpu time   25.1572: real time   25.2716
 BZINTS: Fermi energy:  1.479306;602.000000 electrons
         Band energy:-760.127062;  BLOECHL correction: -0.010011
       DOS:  cpu time    0.0430: real time    0.0430
    --------------------------------------------
      LOOP:  cpu time   25.2002: real time   25.3146

 eigenvalue-minimisations  :  8280
 total energy-change (2. order) :-0.4511609E+04  (-0.4241215E+04)
 number of electron     602.0000008 magnetization      81.9189115
 augmentation part      602.0000008 magnetization      81.9189115

 DIPCOR: dipole corrections for dipol
 direction  3 min pos   237,
 dipolmoment           0.000000      0.000000     -0.004011 electrons x Angstroem
 Tr[quadrupol]     -9834.938822

 energy correction for charged system         0.000000 eV
 dipol+quadrupol energy correction           -0.000001 eV
 added-field ion interaction          0.014859 eV  (added to PSCEN)


 Free energy of the ion-electron system (eV)
  ---------------------------------------------------
  alpha Z        PSCENC =      1281.22551652
  Ewald energy   TEWEN  =    214108.57347568
  -Hartree energ DENC   =   -272556.95618574
  -exchange      EXHF   =         0.00000000
  -V(xc)+E(xc)   XCENC  =      1461.40382402
  PAW double counting   =     63746.80906999   -66999.32673687
  entropy T*S    EENTRO =         0.00000000
  eigenvalues    EBANDS =      -760.12706230
  atomic energy  EATOM  =     59787.13230648
  Solvation  Ediel_sol  =         0.00000000
  ---------------------------------------------------
  free energy    TOTEN  =        68.73420779 eV

  energy without entropy =       68.73420779  energy(sigma->0) =       68.73420779


--------------------------------------------------------------------------------------------------------




--------------------------------------- Iteration      1(   3)  ---------------------------------------


     EDDAV:  cpu time   25.2172: real time   25.3063
 BZINTS: Fermi energy:  0.282586;602.000000 electrons
         Band energy:***********;  BLOECHL correction: -0.007098
       DOS:  cpu time    0.0430: real time    0.0429
    --------------------------------------------
      LOOP:  cpu time   25.2602: real time   25.3492

 eigenvalue-minimisations  :  8532
 total energy-change (2. order) :-0.4331745E+03  (-0.3724614E+03)
 number of electron     602.0000008 magnetization      81.9189115
 augmentation part      602.0000008 magnetization      81.9189115

 DIPCOR: dipole corrections for dipol
 direction  3 min pos   237,
 dipolmoment           0.000000      0.000000     -0.004011 electrons x Angstroem
 Tr[quadrupol]     -9834.938822

 energy correction for charged system         0.000000 eV
 dipol+quadrupol energy correction           -0.000001 eV
 added-field ion interaction          0.014859 eV  (added to PSCEN)


 Free energy of the ion-electron system (eV)
  ---------------------------------------------------
  alpha Z        PSCENC =      1281.22551652
  Ewald energy   TEWEN  =    214108.57347568
  -Hartree energ DENC   =   -272556.95618574
  -exchange      EXHF   =         0.00000000
  -V(xc)+E(xc)   XCENC  =      1461.40382402
  PAW double counting   =     63746.80906999   -66999.32673687
  entropy T*S    EENTRO =         0.00000000
  eigenvalues    EBANDS =     -1193.30159191
  atomic energy  EATOM  =     59787.13230648
  Solvation  Ediel_sol  =         0.00000000
  ---------------------------------------------------
  free energy    TOTEN  =      -364.44032182 eV

  energy without entropy =     -364.44032182  energy(sigma->0) =     -364.44032182


--------------------------------------------------------------------------------------------------------




--------------------------------------- Iteration      1(   4)  ---------------------------------------


     EDDAV:  cpu time   25.7151: real time   25.8121
 BZINTS: Fermi energy:  0.248638;602.000000 electrons
         Band energy:***********;  BLOECHL correction: -0.005551
       DOS:  cpu time    0.0450: real time    0.0445
    --------------------------------------------
      LOOP:  cpu time   25.7601: real time   25.8566

 eigenvalue-minimisations  :  8829
 total energy-change (2. order) :-0.1803925E+02  (-0.1768841E+02)
 number of electron     602.0000008 magnetization      81.9189115
 augmentation part      602.0000008 magnetization      81.9189115

 DIPCOR: dipole corrections for dipol
 direction  3 min pos   237,
 dipolmoment           0.000000      0.000000     -0.004011 electrons x Angstroem
 Tr[quadrupol]     -9834.938822

 energy correction for charged system         0.000000 eV
 dipol+quadrupol energy correction           -0.000001 eV
 added-field ion interaction          0.014859 eV  (added to PSCEN)


 Free energy of the ion-electron system (eV)
  ---------------------------------------------------
  alpha Z        PSCENC =      1281.22551652
  Ewald energy   TEWEN  =    214108.57347568
  -Hartree energ DENC   =   -272556.95618574
  -exchange      EXHF   =         0.00000000
  -V(xc)+E(xc)   XCENC  =      1461.40382402
  PAW double counting   =     63746.80906999   -66999.32673687
  entropy T*S    EENTRO =         0.00000000
  eigenvalues    EBANDS =     -1211.34083730
  atomic energy  EATOM  =     59787.13230648
  Solvation  Ediel_sol  =         0.00000000
  ---------------------------------------------------
  free energy    TOTEN  =      -382.47956722 eV

  energy without entropy =     -382.47956722  energy(sigma->0) =     -382.47956722


--------------------------------------------------------------------------------------------------------




--------------------------------------- Iteration      1(   5)  ---------------------------------------


     EDDAV:  cpu time   27.7388: real time   27.7895
 BZINTS: Fermi energy:  0.248081;602.000000 electrons
         Band energy:***********;  BLOECHL correction: -0.005477
       DOS:  cpu time    0.0440: real time    0.0433
    CHARGE:  cpu time    0.8109: real time    0.8115
    MIXING:  cpu time    0.0050: real time    0.0047
    --------------------------------------------
      LOOP:  cpu time   28.5987: real time   28.6491

 eigenvalue-minimisations  :  9711
 total energy-change (2. order) :-0.3398781E+00  (-0.3397526E+00)
 number of electron     602.0000008 magnetization      81.9180229
 augmentation part      357.0262224 magnetization      70.0989204

 DIPCOR: dipole corrections for dipol
 direction  3 min pos   237,
 dipolmoment           0.000000      0.000000     -0.004011 electrons x Angstroem
 Tr[quadrupol]     -9834.938822

 energy correction for charged system         0.000000 eV
 dipol+quadrupol energy correction           -0.000001 eV
 added-field ion interaction          0.014859 eV  (added to PSCEN)


 Broyden mixing:
  rms(total) = 0.31565E-01    rms(broyden)= 0.31489E-01
  rms(prec ) = 0.31946E-01
  weight for this iteration     100.00

 Free energy of the ion-electron system (eV)
  ---------------------------------------------------
  alpha Z        PSCENC =      1281.22551652
  Ewald energy   TEWEN  =    214108.57347568
  -Hartree energ DENC   =   -272556.95618574
  -exchange      EXHF   =         0.00000000
  -V(xc)+E(xc)   XCENC  =      1461.40382402
  PAW double counting   =     63746.80906999   -66999.32673687
  entropy T*S    EENTRO =         0.00000000
  eigenvalues    EBANDS =     -1211.68071537
  atomic energy  EATOM  =     59787.13230648
  Solvation  Ediel_sol  =         0.00000000
  ---------------------------------------------------
  free energy    TOTEN  =      -382.81944528 eV

  energy without entropy =     -382.81944528  energy(sigma->0) =     -382.81944528


--------------------------------------------------------------------------------------------------------




--------------------------------------- Iteration      1(   6)  ---------------------------------------


    POTLOK:  cpu time    0.2460: real time    0.2470
    SETDIJ:  cpu time    0.0190: real time    0.0185
    EDDIAG:  cpu time    3.7024: real time    3.7061
  RMM-DIIS:  cpu time   15.7676: real time   15.8394
    ORTHCH:  cpu time    0.6489: real time    0.6486
 BZINTS: Fermi energy:  0.249646;602.000000 electrons
         Band energy:***********;  BLOECHL correction: -0.005439
       DOS:  cpu time    0.0420: real time    0.0422
    CHARGE:  cpu time    0.7909: real time    0.7926
    MIXING:  cpu time    0.0050: real time    0.0049
    --------------------------------------------
      LOOP:  cpu time   21.2218: real time   21.2993

 eigenvalue-minimisations  :  8558
 total energy-change (2. order) :-0.3101390E-02  (-0.1580097E-01)
 number of electron     602.0000008 magnetization      81.9179617
 augmentation part      357.0255823 magnetization      70.0558626

 DIPCOR: dipole corrections for dipol
 direction  3 min pos   237,
 dipolmoment           0.000000      0.000000     -0.007575 electrons x Angstroem
 Tr[quadrupol]     -9834.953614

 energy correction for charged system         0.000000 eV
 dipol+quadrupol energy correction           -0.000003 eV
 added-field ion interaction          0.028064 eV  (added to PSCEN)


 Broyden mixing:
  rms(total) = 0.88701E-01    rms(broyden)= 0.88682E-01
  rms(prec ) = 0.99852E-01
  weight for this iteration     100.00

 eigenvalues of (default mixing * dielectric matrix)
  average eigenvalue GAMMA=   0.2288
  0.2288

 Free energy of the ion-electron system (eV)
  ---------------------------------------------------
  alpha Z        PSCENC =      1281.23871920
  Ewald energy   TEWEN  =    214108.57347568
  -Hartree energ DENC   =   -272557.85941314
  -exchange      EXHF   =         0.00000000
  -V(xc)+E(xc)   XCENC  =      1461.43199830
  PAW double counting   =     63807.15383466   -67059.73177126
  entropy T*S    EENTRO =         0.00000000
  eigenvalues    EBANDS =     -1210.76169658
  atomic energy  EATOM  =     59787.13230648
  Solvation  Ediel_sol  =         0.00000000
  ---------------------------------------------------
  free energy    TOTEN  =      -382.82254667 eV

  energy without entropy =     -382.82254667  energy(sigma->0) =     -382.82254667


--------------------------------------------------------------------------------------------------------




--------------------------------------- Iteration      1(   7)  ---------------------------------------


    POTLOK:  cpu time    0.2440: real time    0.2451
    SETDIJ:  cpu time    0.0190: real time    0.0180
    EDDIAG:  cpu time    3.6514: real time    3.6659
  RMM-DIIS:  cpu time   21.8127: real time   21.9307
    ORTHCH:  cpu time    0.6539: real time    0.6554
 BZINTS: Fermi energy:  0.250526;602.000000 electrons
         Band energy:***********;  BLOECHL correction: -0.005229
       DOS:  cpu time    0.0440: real time    0.0437
    CHARGE:  cpu time    0.7689: real time    0.7708
    MIXING:  cpu time    0.0050: real time    0.0045
    --------------------------------------------
      LOOP:  cpu time   27.1989: real time   27.3343

 eigenvalue-minimisations  : 12152
 total energy-change (2. order) :-0.4029570E-02  (-0.4384894E-02)
 number of electron     602.0000008 magnetization      81.9178742
 augmentation part      356.9345452 magnetization      70.1098375

 DIPCOR: dipole corrections for dipol
 direction  3 min pos   238,
 dipolmoment           0.000000      0.000000      0.004400 electrons x Angstroem
 Tr[quadrupol]     -9834.958192

 energy correction for charged system         0.000000 eV
 dipol+quadrupol energy correction           -0.000001 eV
 added-field ion interaction          0.000902 eV  (added to PSCEN)


 Broyden mixing:
  rms(total) = 0.82559E-01    rms(broyden)= 0.82550E-01
  rms(prec ) = 0.10694E+00
  weight for this iteration     100.00

 eigenvalues of (default mixing * dielectric matrix)
  average eigenvalue GAMMA=   0.2265
  0.3535  0.0995

 Free energy of the ion-electron system (eV)
  ---------------------------------------------------
  alpha Z        PSCENC =      1281.21155943
  Ewald energy   TEWEN  =    214108.57347568
  -Hartree energ DENC   =   -272558.66625931
  -exchange      EXHF   =         0.00000000
  -V(xc)+E(xc)   XCENC  =      1461.48179467
  PAW double counting   =     63811.38459112   -67064.08991646
  entropy T*S    EENTRO =         0.00000000
  eigenvalues    EBANDS =     -1209.85412785
  atomic energy  EATOM  =     59787.13230648
  Solvation  Ediel_sol  =         0.00000000
  ---------------------------------------------------
  free energy    TOTEN  =      -382.82657625 eV

  energy without entropy =     -382.82657625  energy(sigma->0) =     -382.82657625


--------------------------------------------------------------------------------------------------------




--------------------------------------- Iteration      1(   8)  ---------------------------------------


    POTLOK:  cpu time    0.2420: real time    0.2436
    SETDIJ:  cpu time    0.0190: real time    0.0180
    EDDIAG:  cpu time    3.6494: real time    3.6532
  RMM-DIIS:  cpu time   16.1305: real time   16.1636
    ORTHCH:  cpu time    0.6369: real time    0.6368
 BZINTS: Fermi energy:  0.251467;602.000000 electrons
         Band energy:***********;  BLOECHL correction: -0.005155
       DOS:  cpu time    0.0450: real time    0.0456
    CHARGE:  cpu time    0.7989: real time    0.7986
    MIXING:  cpu time    0.0050: real time    0.0051
    --------------------------------------------
      LOOP:  cpu time   21.5267: real time   21.5644

 eigenvalue-minimisations  :  8867
 total energy-change (2. order) :-0.2784494E-02  (-0.3848956E-03)
 number of electron     602.0000008 magnetization      81.9179320
 augmentation part      356.9273067 magnetization      70.1143804

 DIPCOR: dipole corrections for dipol
 direction  3 min pos   238,
 dipolmoment           0.000000      0.000000     -0.016050 electrons x Angstroem
 Tr[quadrupol]     -9834.949939

 energy correction for charged system         0.000000 eV
 dipol+quadrupol energy correction           -0.000013 eV
 added-field ion interaction         -0.003291 eV  (added to PSCEN)


 Broyden mixing:
  rms(total) = 0.11012E+00    rms(broyden)= 0.11011E+00
  rms(prec ) = 0.14650E+00
  weight for this iteration     100.00

 eigenvalues of (default mixing * dielectric matrix)
  average eigenvalue GAMMA=   0.1950
  0.3899  0.1420  0.0530

 Free energy of the ion-electron system (eV)
  ---------------------------------------------------
  alpha Z        PSCENC =      1281.20735430
  Ewald energy   TEWEN  =    214108.57347568
  -Hartree energ DENC   =   -272558.17923276
  -exchange      EXHF   =         0.00000000
  -V(xc)+E(xc)   XCENC  =      1461.46850028
  PAW double counting   =     63810.84404451   -67063.49564363
  entropy T*S    EENTRO =         0.00000000
  eigenvalues    EBANDS =     -1210.38016558
  atomic energy  EATOM  =     59787.13230648
  Solvation  Ediel_sol  =         0.00000000
  ---------------------------------------------------
  free energy    TOTEN  =      -382.82936074 eV

  energy without entropy =     -382.82936074  energy(sigma->0) =     -382.82936074


--------------------------------------------------------------------------------------------------------




--------------------------------------- Iteration      1(   9)  ---------------------------------------


    POTLOK:  cpu time    0.2420: real time    0.2434
    SETDIJ:  cpu time    0.0190: real time    0.0181
    EDDIAG:  cpu time    3.6804: real time    3.6857
  RMM-DIIS:  cpu time   15.9416: real time   15.9770
    ORTHCH:  cpu time    0.6389: real time    0.6403
 BZINTS: Fermi energy:  0.248966;602.000000 electrons
         Band energy:***********;  BLOECHL correction: -0.005282
       DOS:  cpu time    0.0430: real time    0.0429
    CHARGE:  cpu time    0.7799: real time    0.7797
    MIXING:  cpu time    0.0050: real time    0.0049
    --------------------------------------------
      LOOP:  cpu time   21.3498: real time   21.3920

 eigenvalue-minimisations  :  8770
 total energy-change (2. order) : 0.4448024E-02  (-0.1939623E-03)
 number of electron     602.0000008 magnetization      81.9179419
 augmentation part      356.9766476 magnetization      70.0924347

 DIPCOR: dipole corrections for dipol
 direction  3 min pos   238,
 dipolmoment           0.000000      0.000000     -0.003258 electrons x Angstroem
 Tr[quadrupol]     -9834.943463

 energy correction for charged system         0.000000 eV
 dipol+quadrupol energy correction           -0.000001 eV
 added-field ion interaction         -0.000668 eV  (added to PSCEN)


 Broyden mixing:
  rms(total) = 0.27788E-01    rms(broyden)= 0.27776E-01
  rms(prec ) = 0.31116E-01
  weight for this iteration     100.00

 eigenvalues of (default mixing * dielectric matrix)
  average eigenvalue GAMMA=   0.2071
  0.3343  0.3343  0.1088  0.0508

 Free energy of the ion-electron system (eV)
  ---------------------------------------------------
  alpha Z        PSCENC =      1281.20998951
  Ewald energy   TEWEN  =    214108.57347568
  -Hartree energ DENC   =   -272557.38729205
  -exchange      EXHF   =         0.00000000
  -V(xc)+E(xc)   XCENC  =      1461.42935795
  PAW double counting   =     63807.71472187   -67060.22273656
  entropy T*S    EENTRO =         0.00000000
  eigenvalues    EBANDS =     -1211.27473560
  atomic energy  EATOM  =     59787.13230648
  Solvation  Ediel_sol  =         0.00000000
  ---------------------------------------------------
  free energy    TOTEN  =      -382.82491272 eV

  energy without entropy =     -382.82491272  energy(sigma->0) =     -382.82491272


--------------------------------------------------------------------------------------------------------




--------------------------------------- Iteration      1(  10)  ---------------------------------------


    POTLOK:  cpu time    0.2530: real time    0.2536
    SETDIJ:  cpu time    0.0240: real time    0.0237
    EDDIAG:  cpu time    3.6864: real time    3.6972
  RMM-DIIS:  cpu time   15.8336: real time   15.8712
    ORTHCH:  cpu time    0.6369: real time    0.6376
 BZINTS: Fermi energy:  0.248967;602.000000 electrons
         Band energy:***********;  BLOECHL correction: -0.005313
       DOS:  cpu time    0.0410: real time    0.0406
    CHARGE:  cpu time    0.7889: real time    0.7903
    MIXING:  cpu time    0.0060: real time    0.0048
    --------------------------------------------
      LOOP:  cpu time   21.2698: real time   21.3189

 eigenvalue-minimisations  :  8761
 total energy-change (2. order) :-0.7554810E-04  (-0.6757193E-04)
 number of electron     602.0000008 magnetization      81.9179646
 augmentation part      356.9727468 magnetization      70.0966618

 DIPCOR: dipole corrections for dipol
 direction  3 min pos   238,
 dipolmoment           0.000000      0.000000     -0.004158 electrons x Angstroem
 Tr[quadrupol]     -9834.946753

 energy correction for charged system         0.000000 eV
 dipol+quadrupol energy correction           -0.000001 eV
 added-field ion interaction         -0.000853 eV  (added to PSCEN)


 Broyden mixing:
  rms(total) = 0.22827E-01    rms(broyden)= 0.22825E-01
  rms(prec ) = 0.24815E-01
  weight for this iteration     100.00

 eigenvalues of (default mixing * dielectric matrix)
  average eigenvalue GAMMA=   0.2746
  0.5400  0.5400  0.0508  0.1376  0.1047

 Free energy of the ion-electron system (eV)
  ---------------------------------------------------
  alpha Z        PSCENC =      1281.20980456
  Ewald energy   TEWEN  =    214108.57347568
  -Hartree energ DENC   =   -272557.42593695
  -exchange      EXHF   =         0.00000000
  -V(xc)+E(xc)   XCENC  =      1461.42114719
  PAW double counting   =     63802.51826403   -67055.00943184
  entropy T*S    EENTRO =         0.00000000
  eigenvalues    EBANDS =     -1211.24461741
  atomic energy  EATOM  =     59787.13230648
  Solvation  Ediel_sol  =         0.00000000
  ---------------------------------------------------
  free energy    TOTEN  =      -382.82498826 eV

  energy without entropy =     -382.82498826  energy(sigma->0) =     -382.82498826


--------------------------------------------------------------------------------------------------------




--------------------------------------- Iteration      1(  11)  ---------------------------------------


    POTLOK:  cpu time    0.2440: real time    0.2448
    SETDIJ:  cpu time    0.0190: real time    0.0185
    EDDIAG:  cpu time    3.6944: real time    3.7029
  RMM-DIIS:  cpu time   15.9426: real time   16.0102
    ORTHCH:  cpu time    0.6589: real time    0.6601
 BZINTS: Fermi energy:  0.249043;602.000000 electrons
         Band energy:***********;  BLOECHL correction: -0.005244
       DOS:  cpu time    0.0430: real time    0.0427
    CHARGE:  cpu time    0.7569: real time    0.7574
    MIXING:  cpu time    0.0050: real time    0.0049
    --------------------------------------------
      LOOP:  cpu time   21.3638: real time   21.4415

 eigenvalue-minimisations  :  8815
 total energy-change (2. order) : 0.8978009E-04  (-0.2586112E-04)
 number of electron     602.0000008 magnetization      81.9179883
 augmentation part      356.9710999 magnetization      70.0986487

 DIPCOR: dipole corrections for dipol
 direction  3 min pos   238,
 dipolmoment           0.000000      0.000000     -0.004081 electrons x Angstroem
 Tr[quadrupol]     -9834.945948

 energy correction for charged system         0.000000 eV
 dipol+quadrupol energy correction           -0.000001 eV
 added-field ion interaction         -0.000837 eV  (added to PSCEN)


 Broyden mixing:
  rms(total) = 0.16932E-01    rms(broyden)= 0.16931E-01
  rms(prec ) = 0.18243E-01
  weight for this iteration     100.00

 eigenvalues of (default mixing * dielectric matrix)
  average eigenvalue GAMMA=   0.2656
  0.5813  0.5813  0.0509  0.1570  0.1209  0.1019

 Free energy of the ion-electron system (eV)
  ---------------------------------------------------
  alpha Z        PSCENC =      1281.20982033
  Ewald energy   TEWEN  =    214108.57347568
  -Hartree energ DENC   =   -272557.38914375
  -exchange      EXHF   =         0.00000000
  -V(xc)+E(xc)   XCENC  =      1461.41919123
  PAW double counting   =     63792.45734145   -67044.96668536
  entropy T*S    EENTRO =         0.00000000
  eigenvalues    EBANDS =     -1211.26120453
  atomic energy  EATOM  =     59787.13230648
  Solvation  Ediel_sol  =         0.00000000
  ---------------------------------------------------
  free energy    TOTEN  =      -382.82489848 eV

  energy without entropy =     -382.82489848  energy(sigma->0) =     -382.82489848


--------------------------------------------------------------------------------------------------------




--------------------------------------- Iteration      1(  12)  ---------------------------------------


    POTLOK:  cpu time    0.2580: real time    0.2590
    SETDIJ:  cpu time    0.0190: real time    0.0187
    EDDIAG:  cpu time    3.6874: real time    3.6904
  RMM-DIIS:  cpu time   15.5476: real time   15.5928
    ORTHCH:  cpu time    0.6319: real time    0.6367
 BZINTS: Fermi energy:  0.248949;602.000000 electrons
         Band energy:***********;  BLOECHL correction: -0.005276
       DOS:  cpu time    0.0430: real time    0.0429
    CHARGE:  cpu time    0.7999: real time    0.8049
    MIXING:  cpu time    0.0060: real time    0.0052
    --------------------------------------------
      LOOP:  cpu time   20.9928: real time   21.0505

 eigenvalue-minimisations  :  8784
 total energy-change (2. order) : 0.4753572E-04  (-0.9430083E-05)
 number of electron     602.0000008 magnetization      81.9180059
 augmentation part      356.9695456 magnetization      70.1001578

 DIPCOR: dipole corrections for dipol
 direction  3 min pos   238,
 dipolmoment           0.000000      0.000000     -0.004091 electrons x Angstroem
 Tr[quadrupol]     -9834.943819

 energy correction for charged system         0.000000 eV
 dipol+quadrupol energy correction           -0.000001 eV
 added-field ion interaction         -0.000839 eV  (added to PSCEN)


 Broyden mixing:
  rms(total) = 0.80089E-02    rms(broyden)= 0.80085E-02
  rms(prec ) = 0.81864E-02
  weight for this iteration     100.00

 eigenvalues of (default mixing * dielectric matrix)
  average eigenvalue GAMMA=   0.2708
  0.6120  0.6120  0.2480  0.0509  0.1573  0.1161  0.0992

 Free energy of the ion-electron system (eV)
  ---------------------------------------------------
  alpha Z        PSCENC =      1281.20981847
  Ewald energy   TEWEN  =    214108.57347568
  -Hartree energ DENC   =   -272557.33270947
  -exchange      EXHF   =         0.00000000
  -V(xc)+E(xc)   XCENC  =      1461.42025131
  PAW double counting   =     63788.93552209   -67041.45655986
  entropy T*S    EENTRO =         0.00000000
  eigenvalues    EBANDS =     -1211.30695565
  atomic energy  EATOM  =     59787.13230648
  Solvation  Ediel_sol  =         0.00000000
  ---------------------------------------------------
  free energy    TOTEN  =      -382.82485095 eV

  energy without entropy =     -382.82485095  energy(sigma->0) =     -382.82485095


--------------------------------------------------------------------------------------------------------




--------------------------------------- Iteration      1(  13)  ---------------------------------------


    POTLOK:  cpu time    0.2430: real time    0.2447
    SETDIJ:  cpu time    0.0180: real time    0.0186
    EDDIAG:  cpu time    3.7964: real time    3.8039
  RMM-DIIS:  cpu time   16.6195: real time   16.6606
    ORTHCH:  cpu time    0.6379: real time    0.6392
 BZINTS: Fermi energy:  0.248991;602.000000 electrons
         Band energy:***********;  BLOECHL correction: -0.005273
       DOS:  cpu time    0.0430: real time    0.0427
    CHARGE:  cpu time    0.8239: real time    0.8249
    MIXING:  cpu time    0.0050: real time    0.0051
    --------------------------------------------
      LOOP:  cpu time   22.1866: real time   22.2398

 eigenvalue-minimisations  :  9379
 total energy-change (2. order) :-0.7998235E-05  (-0.2451993E-05)
 number of electron     602.0000008 magnetization      81.9180576
 augmentation part      356.9690992 magnetization      70.1007002

 DIPCOR: dipole corrections for dipol
 direction  3 min pos   238,
 dipolmoment           0.000000      0.000000     -0.004050 electrons x Angstroem
 Tr[quadrupol]     -9834.943738

 energy correction for charged system         0.000000 eV
 dipol+quadrupol energy correction           -0.000001 eV
 added-field ion interaction         -0.000830 eV  (added to PSCEN)


 Broyden mixing:
  rms(total) = 0.75129E-02    rms(broyden)= 0.75128E-02
  rms(prec ) = 0.76476E-02
  weight for this iteration     100.00

 eigenvalues of (default mixing * dielectric matrix)
  average eigenvalue GAMMA=   0.3033
  0.7415  0.7415  0.3783  0.1758  0.0509  0.1250  0.1151  0.0980

 Free energy of the ion-electron system (eV)
  ---------------------------------------------------
  alpha Z        PSCENC =      1281.20982685
  Ewald energy   TEWEN  =    214108.57347568
  -Hartree energ DENC   =   -272557.32452655
  -exchange      EXHF   =         0.00000000
  -V(xc)+E(xc)   XCENC  =      1461.41925646
  PAW double counting   =     63786.01116770   -67038.53552790
  entropy T*S    EENTRO =         0.00000000
  eigenvalues    EBANDS =     -1211.31083767
  atomic energy  EATOM  =     59787.13230648
  Solvation  Ediel_sol  =         0.00000000
  ---------------------------------------------------
  free energy    TOTEN  =      -382.82485895 eV

  energy without entropy =     -382.82485895  energy(sigma->0) =     -382.82485895


--------------------------------------------------------------------------------------------------------




--------------------------------------- Iteration      1(  14)  ---------------------------------------


    POTLOK:  cpu time    0.2440: real time    0.2447
    SETDIJ:  cpu time    0.0190: real time    0.0185
    EDDIAG:  cpu time    3.7164: real time    3.7264
  RMM-DIIS:  cpu time   14.6518: real time   14.6899
    ORTHCH:  cpu time    0.6379: real time    0.6381
 BZINTS: Fermi energy:  0.248780;602.000000 electrons
         Band energy:***********;  BLOECHL correction: -0.005269
       DOS:  cpu time    0.0440: real time    0.0437
    CHARGE:  cpu time    0.8089: real time    0.8098
    MIXING:  cpu time    0.0060: real time    0.0053
    --------------------------------------------
      LOOP:  cpu time   20.1279: real time   20.1765

 eigenvalue-minimisations  :  8172
 total energy-change (2. order) :-0.1664962E-04  (-0.7892780E-06)
 number of electron     602.0000008 magnetization      81.9180811
 augmentation part      356.9708536 magnetization      70.1002046

 DIPCOR: dipole corrections for dipol
 direction  3 min pos   234,
 dipolmoment           0.000000      0.000000     -0.004035 electrons x Angstroem
 Tr[quadrupol]     -9834.943226

 energy correction for charged system         0.000000 eV
 dipol+quadrupol energy correction           -0.000001 eV
 added-field ion interaction          0.062277 eV  (added to PSCEN)


 Broyden mixing:
  rms(total) = 0.62869E-02    rms(broyden)= 0.62868E-02
  rms(prec ) = 0.64277E-02
  weight for this iteration     100.00

 eigenvalues of (default mixing * dielectric matrix)
  average eigenvalue GAMMA=   0.2930
  0.7724  0.7724  0.3217  0.2411  0.0509  0.1365  0.1365  0.1059  0.0993

 Free energy of the ion-electron system (eV)
  ---------------------------------------------------
  alpha Z        PSCENC =      1281.27293392
  Ewald energy   TEWEN  =    214108.57347568
  -Hartree energ DENC   =   -272557.26031236
  -exchange      EXHF   =         0.00000000
  -V(xc)+E(xc)   XCENC  =      1461.41580322
  PAW double counting   =     63778.99850645   -67031.52562058
  entropy T*S    EENTRO =         0.00000000
  eigenvalues    EBANDS =     -1211.43196840
  atomic energy  EATOM  =     59787.13230648
  Solvation  Ediel_sol  =         0.00000000
  ---------------------------------------------------
  free energy    TOTEN  =      -382.82487560 eV

  energy without entropy =     -382.82487560  energy(sigma->0) =     -382.82487560


--------------------------------------------------------------------------------------------------------




--------------------------------------- Iteration      1(  15)  ---------------------------------------


    POTLOK:  cpu time    0.2430: real time    0.2458
    SETDIJ:  cpu time    0.0190: real time    0.0185
    EDDIAG:  cpu time    3.6884: real time    3.6991
  RMM-DIIS:  cpu time   10.5674: real time   10.6095
    ORTHCH:  cpu time    0.6649: real time    0.6688
 BZINTS: Fermi energy:  0.248841;602.000000 electrons
         Band energy:***********;  BLOECHL correction: -0.005274
       DOS:  cpu time    0.0420: real time    0.0423
    CHARGE:  cpu time    0.7869: real time    0.7876
    MIXING:  cpu time    0.0060: real time    0.0058
    --------------------------------------------
      LOOP:  cpu time   16.0176: real time   16.0774

 eigenvalue-minimisations  :  5697
 total energy-change (2. order) :-0.1272461E-04  (-0.2875404E-06)
 number of electron     602.0000008 magnetization      81.9181453
 augmentation part      356.9702898 magnetization      70.1010540

 DIPCOR: dipole corrections for dipol
 direction  3 min pos   236,
 dipolmoment           0.000000      0.000000     -0.003989 electrons x Angstroem
 Tr[quadrupol]     -9834.942862

 energy correction for charged system         0.000000 eV
 dipol+quadrupol energy correction           -0.000001 eV
 added-field ion interaction          0.030374 eV  (added to PSCEN)


 Broyden mixing:
  rms(total) = 0.56850E-02    rms(broyden)= 0.56849E-02
  rms(prec ) = 0.57731E-02
  weight for this iteration     100.00

 eigenvalues of (default mixing * dielectric matrix)
  average eigenvalue GAMMA=   0.3306
  0.8993  0.8993  0.4180  0.4180  0.0509  0.1530  0.1530  0.0968  0.1089  0.1089

 Free energy of the ion-electron system (eV)
  ---------------------------------------------------
  alpha Z        PSCENC =      1281.24103121
  Ewald energy   TEWEN  =    214108.57347568
  -Hartree energ DENC   =   -272557.25942878
  -exchange      EXHF   =         0.00000000
  -V(xc)+E(xc)   XCENC  =      1461.41521079
  PAW double counting   =     63776.30448952   -67028.83477196
  entropy T*S    EENTRO =         0.00000000
  eigenvalues    EBANDS =     -1211.39720125
  atomic energy  EATOM  =     59787.13230648
  Solvation  Ediel_sol  =         0.00000000
  ---------------------------------------------------
  free energy    TOTEN  =      -382.82488832 eV

  energy without entropy =     -382.82488832  energy(sigma->0) =     -382.82488832


--------------------------------------------------------------------------------------------------------




--------------------------------------- Iteration      1(  16)  ---------------------------------------


    POTLOK:  cpu time    0.2600: real time    0.2603
    SETDIJ:  cpu time    0.0190: real time    0.0186
    EDDIAG:  cpu time    3.7204: real time    3.7308
  RMM-DIIS:  cpu time   12.1092: real time   12.1295
    ORTHCH:  cpu time    0.6489: real time    0.6491
 BZINTS: Fermi energy:  0.248678;602.000000 electrons
         Band energy:***********;  BLOECHL correction: -0.005271
       DOS:  cpu time    0.0410: real time    0.0419
    CHARGE:  cpu time    0.7759: real time    0.7762
    MIXING:  cpu time    0.0210: real time    0.0210
    --------------------------------------------
      LOOP:  cpu time   17.5953: real time   17.6274

 eigenvalue-minimisations  :  6546
 total energy-change (2. order) :-0.2051141E-04  (-0.3597407E-06)
 number of electron     602.0000008 magnetization      81.9182162
 augmentation part      356.9715510 magnetization      70.1012914

 DIPCOR: dipole corrections for dipol
 direction  3 min pos   233,
 dipolmoment           0.000000      0.000000     -0.003966 electrons x Angstroem
 Tr[quadrupol]     -9834.944027

 energy correction for charged system         0.000000 eV
 dipol+quadrupol energy correction           -0.000001 eV
 added-field ion interaction          0.076717 eV  (added to PSCEN)


 Broyden mixing:
  rms(total) = 0.48773E-02    rms(broyden)= 0.48772E-02
  rms(prec ) = 0.50179E-02
  weight for this iteration     100.00

 eigenvalues of (default mixing * dielectric matrix)
  average eigenvalue GAMMA=   0.3498
  1.0400  1.0400  0.4797  0.4797  0.0509  0.1645  0.1645  0.1179  0.1179  0.0961
  0.0961

 Free energy of the ion-electron system (eV)
  ---------------------------------------------------
  alpha Z        PSCENC =      1281.28737421
  Ewald energy   TEWEN  =    214108.57347568
  -Hartree energ DENC   =   -272557.20965345
  -exchange      EXHF   =         0.00000000
  -V(xc)+E(xc)   XCENC  =      1461.41243225
  PAW double counting   =     63769.69293176   -67022.22526300
  entropy T*S    EENTRO =         0.00000000
  eigenvalues    EBANDS =     -1211.48851276
  atomic energy  EATOM  =     59787.13230648
  Solvation  Ediel_sol  =         0.00000000
  ---------------------------------------------------
  free energy    TOTEN  =      -382.82490883 eV

  energy without entropy =     -382.82490883  energy(sigma->0) =     -382.82490883


--------------------------------------------------------------------------------------------------------




--------------------------------------- Iteration      1(  17)  ---------------------------------------


    POTLOK:  cpu time    0.2500: real time    0.2502
    SETDIJ:  cpu time    0.0190: real time    0.0185
    EDDIAG:  cpu time    3.7284: real time    3.7323
  RMM-DIIS:  cpu time   10.8294: real time   10.8461
    ORTHCH:  cpu time    0.6559: real time    0.6571
 BZINTS: Fermi energy:  0.248678;602.000000 electrons
         Band energy:***********;  BLOECHL correction: -0.005273
       DOS:  cpu time    0.0430: real time    0.0431
    CHARGE:  cpu time    0.7939: real time    0.7940
    MIXING:  cpu time    0.0070: real time    0.0062
    --------------------------------------------
      LOOP:  cpu time   16.3265: real time   16.3475

 eigenvalue-minimisations  :  5794
 total energy-change (2. order) :-0.2079232E-04  (-0.3118893E-06)
 number of electron     602.0000008 magnetization      81.9182518
 augmentation part      356.9721804 magnetization      70.1019271

 DIPCOR: dipole corrections for dipol
 direction  3 min pos   236,
 dipolmoment           0.000000      0.000000     -0.004040 electrons x Angstroem
 Tr[quadrupol]     -9834.941705

 energy correction for charged system         0.000000 eV
 dipol+quadrupol energy correction           -0.000001 eV
 added-field ion interaction          0.030768 eV  (added to PSCEN)


 Broyden mixing:
  rms(total) = 0.34717E-02    rms(broyden)= 0.34717E-02
  rms(prec ) = 0.35554E-02
  weight for this iteration     100.00

 eigenvalues of (default mixing * dielectric matrix)
  average eigenvalue GAMMA=   0.3575
  1.1201  1.1201  0.4940  0.4940  0.2546  0.1901  0.0509  0.1312  0.1312  0.1042
  0.1042  0.0958

 Free energy of the ion-electron system (eV)
  ---------------------------------------------------
  alpha Z        PSCENC =      1281.24142529
  Ewald energy   TEWEN  =    214108.57347568
  -Hartree energ DENC   =   -272557.14365871
  -exchange      EXHF   =         0.00000000
  -V(xc)+E(xc)   XCENC  =      1461.40986331
  PAW double counting   =     63762.57453189   -67015.11005393
  entropy T*S    EENTRO =         0.00000000
  eigenvalues    EBANDS =     -1211.50281964
  atomic energy  EATOM  =     59787.13230648
  Solvation  Ediel_sol  =         0.00000000
  ---------------------------------------------------
  free energy    TOTEN  =      -382.82492962 eV

  energy without entropy =     -382.82492962  energy(sigma->0) =     -382.82492962


--------------------------------------------------------------------------------------------------------




--------------------------------------- Iteration      1(  18)  ---------------------------------------


    POTLOK:  cpu time    0.2660: real time    0.2668
    SETDIJ:  cpu time    0.0190: real time    0.0187
    EDDIAG:  cpu time    3.6944: real time    3.6993
[...]
   -.250E+02 0.415E+02 0.103E+04   0.250E+02 -.415E+02 -.103E+04   0.504E-02 -.830E-01 -.297E+00   -.325E-03 0.208E-02 0.759E-03
   -.134E+02 -.174E+02 -.102E+04   0.134E+02 0.175E+02 0.102E+04   0.538E-02 -.475E-01 0.400E+00   0.673E-03 -.605E-04 -.988E-02
   -.333E+02 -.401E+02 0.289E+04   0.334E+02 0.403E+02 -.289E+04   -.126E+00 -.161E+00 -.491E+00   0.206E-02 -.112E-02 0.175E-02
   -.340E+02 -.318E+02 -.291E+04   0.342E+02 0.319E+02 0.291E+04   -.219E+00 -.118E+00 0.304E+00   0.817E-03 -.103E-02 -.828E-02
   0.514E+02 0.671E+02 0.103E+04   -.515E+02 -.671E+02 -.103E+04   0.204E-01 -.114E+00 -.347E+00   -.167E-02 0.361E-02 0.166E-02
   0.304E+02 0.239E+02 -.106E+04   -.305E+02 -.240E+02 0.106E+04   0.105E+00 0.339E-01 0.148E+00   0.868E-03 0.638E-03 -.935E-02
   -.769E+01 0.409E+02 0.101E+04   0.765E+01 -.409E+02 -.101E+04   0.187E-03 -.187E-01 -.249E+00   -.348E-02 0.938E-04 -.126E-02
   -.354E+02 0.552E+02 0.102E+04   0.355E+02 -.552E+02 -.102E+04   0.109E-01 -.153E-01 -.429E+00   -.349E-02 -.412E-02 -.468E-02
   -.143E+02 0.760E+02 -.992E+03   0.143E+02 -.759E+02 0.992E+03   0.391E-01 -.910E-01 0.317E+00   -.596E-02 -.327E-02 -.106E-01
   0.676E+01 0.942E+02 0.972E+03   -.677E+01 -.942E+02 -.972E+03   0.479E-01 -.178E-01 -.258E+00   0.399E-02 -.471E-02 -.770E-02
   -.353E+02 0.656E+02 -.955E+03   0.353E+02 -.656E+02 0.955E+03   -.286E-01 0.950E-02 0.384E+00   -.134E-02 -.756E-02 -.120E-01
   0.351E+02 0.906E+02 0.100E+04   -.352E+02 -.905E+02 -.100E+04   -.527E-01 -.618E-01 -.433E+00   0.292E-02 -.160E-02 -.475E-02
   0.335E+02 0.908E+02 -.960E+03   -.336E+02 -.907E+02 0.959E+03   0.376E-01 -.534E-01 0.371E+00   0.519E-02 -.583E-02 -.134E-01
   -.254E+02 0.938E+02 0.288E+04   0.255E+02 -.943E+02 -.288E+04   -.986E-01 0.506E+00 -.980E+00   0.139E-02 -.240E-02 0.333E-02
   -.122E+02 0.758E+02 -.289E+04   0.123E+02 -.760E+02 0.289E+04   -.941E-01 0.226E+00 0.588E+00   0.119E-02 -.623E-02 -.748E-02
   0.147E+02 0.974E+02 -.995E+03   -.147E+02 -.972E+02 0.995E+03   -.401E-01 -.152E+00 0.400E+00   0.236E-02 -.287E-02 -.128E-01
   0.573E+01 0.942E+02 0.295E+04   -.572E+01 -.948E+02 -.295E+04   -.855E-02 0.620E+00 -.388E+00   -.183E-02 0.857E-03 0.444E-02
   -.329E+01 0.103E+03 -.291E+04   0.335E+01 -.103E+03 0.291E+04   -.647E-01 0.569E+00 0.285E+00   -.163E-02 -.230E-02 -.949E-02
   -.244E+02 -.342E+02 -.997E+03   0.244E+02 0.341E+02 0.997E+03   0.478E-01 0.870E-01 0.331E+00   -.178E-02 0.139E-03 -.107E-01
   -.320E+02 -.324E+02 -.101E+04   0.320E+02 0.324E+02 0.101E+04   -.319E-02 -.284E-01 0.344E+00   -.803E-02 0.126E-02 -.979E-02
   -.226E+02 -.284E+02 0.295E+04   0.226E+02 0.286E+02 -.295E+04   -.128E+00 -.227E+00 -.570E+00   -.176E-02 0.235E-02 0.391E-02
   -.254E+02 -.118E+02 -.294E+04   0.255E+02 0.119E+02 0.294E+04   -.520E-01 -.114E+00 0.596E+00   -.377E-02 -.160E-03 -.693E-02
   0.314E+02 0.103E+02 0.293E+04   -.314E+02 -.103E+02 -.293E+04   0.101E+00 -.459E-01 -.977E+00   0.766E-03 -.197E-02 0.370E-03
   0.304E+02 0.837E+01 -.292E+04   -.303E+02 -.836E+01 0.292E+04   -.503E-01 -.173E-01 0.104E+01   -.334E-02 -.398E-03 -.257E-02
   0.337E+02 0.883E+01 -.987E+03   -.337E+02 -.877E+01 0.987E+03   -.297E-01 -.317E-01 0.237E+00   0.657E-02 -.260E-02 -.127E-01
   -.316E+01 0.489E+02 0.293E+04   0.316E+01 -.488E+02 -.293E+04   -.714E-02 -.105E+00 -.114E+01   0.321E-02 -.224E-02 0.378E-02
   0.127E+02 0.448E+02 -.293E+04   -.128E+02 -.447E+02 0.293E+04   0.849E-01 -.168E-01 0.121E+01   0.491E-02 -.264E-02 -.520E-02
   -.522E+01 0.158E+02 0.294E+04   0.527E+01 -.158E+02 -.294E+04   0.420E-01 -.109E+00 -.826E+00   -.214E-02 0.180E-02 0.503E-02
   -.176E+02 0.268E+02 -.295E+04   0.176E+02 -.268E+02 0.295E+04   -.771E-02 0.671E-01 0.928E+00   0.271E-02 -.157E-02 -.747E-02
   -.671E+02 -.655E+02 0.236E+04   0.674E+02 0.658E+02 -.236E+04   -.360E+00 -.366E+00 -.243E+01   -.550E-03 0.152E-02 0.139E-02
   -.672E+02 -.597E+02 -.237E+04   0.676E+02 0.599E+02 0.236E+04   -.412E+00 -.256E+00 0.217E+01   0.744E-03 0.178E-02 -.609E-02
   0.372E+02 -.900E+02 0.235E+04   -.375E+02 0.906E+02 -.235E+04   0.290E+00 -.651E+00 -.201E+01   -.377E-02 0.206E-02 0.441E-03
   0.318E+02 -.787E+02 -.236E+04   -.322E+02 0.792E+02 0.236E+04   0.371E+00 -.568E+00 0.193E+01   -.380E-02 0.445E-02 -.378E-02
   -.530E+02 0.217E+02 0.794E+03   0.531E+02 -.216E+02 -.794E+03   -.116E+00 -.129E+00 -.330E+00   0.107E-02 -.185E-02 -.298E-02
   0.383E+02 0.597E+02 0.805E+03   -.383E+02 -.598E+02 -.805E+03   0.441E-01 0.772E-01 -.140E+00   0.659E-03 -.282E-03 -.265E-02
   -.327E+02 -.116E+01 -.788E+03   0.328E+02 0.121E+01 0.788E+03   -.119E+00 -.439E-01 0.272E+00   0.869E-03 -.300E-02 -.812E-02
   -.386E+02 -.247E+01 0.231E+04   0.392E+02 0.222E+01 -.231E+04   -.650E+00 0.333E+00 -.221E+01   -.106E-02 -.339E-03 0.140E-02
   -.265E+02 0.111E+02 -.236E+04   0.270E+02 -.115E+02 0.236E+04   -.596E+00 0.350E+00 0.243E+01   0.561E-03 -.150E-02 -.637E-02
   0.154E+02 0.262E+02 -.841E+03   -.154E+02 -.265E+02 0.841E+03   -.381E-01 0.282E+00 -.141E+00   -.168E-02 0.402E-02 -.586E-02
   0.517E+02 -.114E+02 0.232E+04   -.522E+02 0.114E+02 -.232E+04   0.430E+00 0.136E+00 -.184E+01   -.351E-02 0.114E-02 0.856E-03
   0.245E+02 -.167E+02 -.236E+04   -.249E+02 0.167E+02 0.236E+04   0.427E+00 -.344E-01 0.265E+01   -.452E-03 0.239E-02 -.589E-02
   0.185E+02 -.515E+02 0.233E+04   -.185E+02 0.517E+02 -.233E+04   0.145E+00 -.168E+00 -.223E+01   0.291E-02 -.332E-04 0.614E-03
   0.354E+02 -.630E+02 -.236E+04   -.356E+02 0.631E+02 0.236E+04   0.241E+00 -.149E+00 0.295E+01   -.954E-03 0.297E-02 -.536E-02
   -.516E+01 0.624E+02 0.235E+04   0.523E+01 -.626E+02 -.235E+04   -.162E-01 0.257E+00 -.280E+01   0.209E-02 -.144E-02 0.178E-02
   0.129E+02 0.452E+02 -.234E+04   -.130E+02 -.453E+02 0.234E+04   0.103E+00 0.104E+00 0.260E+01   -.250E-02 -.306E-02 -.490E-02
   0.183E+02 0.107E+03 0.235E+04   -.185E+02 -.108E+03 -.234E+04   0.150E+00 0.590E+00 -.272E+01   -.185E-02 0.387E-03 0.294E-02
   -.479E+00 0.942E+02 -.234E+04   0.429E+00 -.946E+02 0.234E+04   0.502E-01 0.497E+00 0.201E+01   0.259E-02 -.273E-02 -.660E-02
   0.190E+02 -.146E+01 -.789E+03   -.190E+02 0.139E+01 0.789E+03   -.999E-01 0.723E-01 0.195E+00   0.198E-02 -.113E-02 -.942E-02
 -----------------------------------------------------------------------------------------------
   0.280E+00 -.494E+00 0.758E+00   0.558E-12 -.838E-12 0.108E-10   -.280E+00 0.499E+00 -.485E+00   0.408E-03 -.647E-03 -.278E+00
 
 
 POSITION                                       TOTAL-FORCE (eV/Angst)
 -----------------------------------------------------------------------------------
      0.00265      0.00460      4.10930         0.078401      0.034516     -0.035551
      2.50538      0.00249      4.09112         0.007654      0.079819     -0.092271
     -0.00053      8.67545      4.10650        -0.041662      0.104996     -0.045157
      2.50374      8.67643      4.10823         0.026068      0.039625      0.034423
      8.76727      2.15790      4.10604         0.045908      0.019510     -0.142701
      1.25353      2.17274      4.09844         0.066618      0.006736     -0.002825
     -0.00009      1.44787      6.15452         0.021109     -0.010248     -0.094587
      3.77193      2.16142      4.10792        -0.002782      0.007880     -0.014665
      2.49822      1.44772      6.16141         0.004541     -0.006622     -0.044524
      6.27168      2.17140      4.12544        -0.024075     -0.042930     -0.144528
      4.99643      1.45448      6.17805         0.021690      0.003099     -0.072272
      7.51952      1.45440      6.15297        -0.028058      0.011421     -0.105484
      6.25724      0.72120      2.06579         0.017870     -0.009868      0.256836
      6.26138      0.72438      8.17338        -0.023137      0.027848     -0.053011
      8.77725      0.71231      2.05449        -0.074662     -0.041146      0.336943
      8.76760      0.69417      8.13660         0.008369      0.004324     -0.056252
     -2.49068      4.34584      4.07658         0.014046     -0.066035     -0.060376
     -1.28085      3.62163      6.15538        -0.007688     -0.011217     -0.082530
     -0.00860      2.89985      2.05504        -0.085537      0.037462      0.321959
      0.00378      2.89635      8.14449        -0.001386      0.000473     -0.059407
      5.02108      4.35795      4.08118        -0.043001     -0.118398     -0.045078
      3.76768      3.61754      6.17002         0.010313     -0.011234     -0.085470
     -3.75488      6.52259      4.08281        -0.046369      0.041391     -0.198914
     -1.25738      6.50265      4.07876         0.096080     -0.038632     -0.188334
     -2.50236      5.79724      6.11504         0.023197     -0.002252     -0.096804
      1.25473      6.50540      4.08192         0.038906     -0.049610     -0.075773
     -0.01061      5.77913      6.11770         0.009050      0.007840     -0.091665
      3.76821      6.52071      4.09871        -0.089401     -0.016509     -0.170960
      2.50687      5.78512      6.12437        -0.013390     -0.034057     -0.103530
      1.25945      5.05378      2.02837         0.080288      0.015602      0.286922
      1.28395      5.05908      8.13182         0.017130     -0.004125     -0.053178
      5.01850      5.78882      6.12520        -0.004930     -0.003961     -0.091426
      6.27138      5.06452      2.02789        -0.000889     -0.011880      0.396021
      6.27640      5.06536      8.12130        -0.003402     -0.022181     -0.034116
     -3.75860      7.96831      6.12216         0.016777     -0.006643     -0.102569
     -1.24378      7.96301      6.14074        -0.011740     -0.015487     -0.099774
     -2.51584      7.25277      2.04000        -0.118175      0.017957      0.315676
     -2.51982      7.26025      8.10478        -0.011261      0.015227     -0.046633
      0.00963      7.22591      2.05468         0.029172     -0.068202      0.307507
      0.02578      7.23010      8.14660         0.012861     -0.005191     -0.057889
      3.75071      7.96102      6.14361        -0.012554      0.029171     -0.093804
      2.50222      7.23652      2.06066         0.012070     -0.028394      0.299953
      2.49741      7.25499      8.15115        -0.003538     -0.001459     -0.045425
      5.01801      7.23500      2.05687         0.087299     -0.046689      0.325654
      5.01087      7.23684      8.11686         0.014733      0.002737     -0.059445
      1.20950      0.71304      2.03874        -0.061499     -0.084586      0.236838
      1.20669      0.70941      8.15134         0.006935      0.004788     -0.101999
      3.78049      0.67792      2.04862        -0.066569     -0.041787      0.283913
      3.77979      0.66848      8.15895        -0.010215     -0.010422     -0.113777
     -0.01227      4.33343      4.09239        -0.032108     -0.035029     -0.186449
      2.55867      4.36425      4.10816         0.029433     -0.039202     -0.143348
      1.25179      3.61165      6.17999        -0.006769      0.006946     -0.040102
      2.51334      2.87806      2.06450        -0.031842      0.069205      0.014339
      2.54536      2.88212      8.24309        -0.000605     -0.013773     -0.083163
      6.25981      3.62739      6.14423        -0.014121      0.005016     -0.046147
      5.02463      2.88643      2.10334        -0.118381      0.147419      0.109120
      5.02383      2.89744      8.23981         0.006821      0.005737     -0.095800
      7.52997      2.83909      2.09508         0.150095      0.002161      0.121778
      7.54539      2.83389      8.20619         0.002107      0.001942     -0.101604
     -1.25360      5.10876      2.00000         0.048385      0.039190      0.144812
     -1.24042      5.09631      8.12845         0.013385     -0.019969     -0.086220
      3.75975      5.11705      2.00810        -0.016790      0.114594      0.212269
      3.76393      5.12546      8.13124         0.003130      0.011858     -0.088333
      1.25259      7.95599      6.14566        -0.013903      0.001249     -0.071095
 -----------------------------------------------------------------------------------
    total drift:                                0.000726      0.003685     -0.005459


--------------------------------------------------------------------------------------------------------



  FREE ENERGIE OF THE ION-ELECTRON SYSTEM (eV)
  ---------------------------------------------------
  free  energy   TOTEN  =      -398.96633564 eV

  energy  without entropy=     -398.96633564  energy(sigma->0) =     -398.96633564
 


--------------------------------------------------------------------------------------------------------


    POTLOK:  cpu time    0.2750: real time    0.2774


--------------------------------------------------------------------------------------------------------


     LOOP+:  cpu time  490.8534: real time  492.4102
    4ORBIT:  cpu time    0.0000: real time    0.0000
 


 total charge     
 
# of ion       s       p       d       tot
------------------------------------------
    1        0.492   0.485   8.318   9.295
    2        0.493   0.487   8.318   9.298
    3        0.493   0.485   8.325   9.303
    4        0.489   0.479   8.324   9.292
    5        0.495   0.491   8.321   9.307
    6        0.502   0.499   8.320   9.321
    7        0.498   0.499   8.329   9.326
    8        0.501   0.498   8.318   9.318
    9        0.501   0.504   8.318   9.323
   10        0.500   0.499   8.326   9.324
   11        0.502   0.504   8.326   9.333
   12        0.501   0.503   8.327   9.331
   13        0.500   0.389   8.317   9.206
   14        0.507   0.405   8.322   9.234
   15        0.492   0.381   8.326   9.199
   16        0.501   0.402   8.326   9.229
   17        0.500   0.500   8.320   9.321
   18        0.508   0.513   8.329   9.350
   19        0.502   0.401   8.314   9.218
   20        0.510   0.410   8.318   9.238
   21        0.501   0.500   8.327   9.328
   22        0.509   0.513   8.328   9.349
   23        0.487   0.477   8.316   9.279
   24        0.495   0.492   8.312   9.299
   25        0.498   0.499   8.333   9.330
   26        0.495   0.490   8.328   9.313
   27        0.503   0.508   8.336   9.347
   28        0.497   0.496   8.315   9.308
   29        0.505   0.513   8.334   9.351
   30        0.502   0.390   8.312   9.204
   31        0.505   0.403   8.323   9.232
   32        0.499   0.500   8.333   9.331
   33        0.497   0.389   8.304   9.189
   34        0.508   0.408   8.313   9.229
   35        0.496   0.494   8.327   9.317
   36        0.499   0.495   8.334   9.328
   37        0.498   0.392   8.314   9.204
   38        0.503   0.403   8.324   9.230
   39        0.493   0.386   8.322   9.201
   40        0.502   0.395   8.327   9.225
   41        0.494   0.491   8.329   9.314
   42        0.486   0.378   8.313   9.178
   43        0.499   0.394   8.319   9.213
   44        0.495   0.385   8.321   9.201
   45        0.501   0.398   8.326   9.226
   46        0.470   0.397   6.111   6.978
   47        0.472   0.407   6.126   7.005
   48        0.469   0.404   6.128   7.000
   49        0.473   0.414   6.143   7.030
   50        0.468   0.496   6.170   7.134
   51        0.471   0.500   6.186   7.157
   52        0.474   0.502   6.179   7.155
   53        0.468   0.404   6.158   7.030
   54        0.465   0.394   6.158   7.017
   55        0.472   0.501   6.169   7.142
   56        0.473   0.412   6.157   7.042
   57        0.470   0.397   6.162   7.030
   58        0.470   0.404   6.130   7.004
   59        0.469   0.395   6.138   7.002
   60        0.465   0.385   6.111   6.961
   61        0.466   0.395   6.114   6.975
   62        0.469   0.392   6.123   6.984
   63        0.474   0.409   6.133   7.016
   64        0.470   0.502   6.141   7.113
--------------------------------------------------
tot         31.384  28.635 491.248 551.267
 


 magnetization (x)
 
# of ion       s       p       d       tot
------------------------------------------
    1       -0.010  -0.030   0.697   0.657
    2       -0.013  -0.036   0.712   0.662
    3       -0.013  -0.030   0.687   0.644
    4       -0.010  -0.026   0.660   0.624
    5       -0.011  -0.032   0.702   0.659
    6       -0.021  -0.045   0.726   0.660
    7       -0.012  -0.033   0.685   0.640
    8       -0.016  -0.045   0.727   0.666
    9       -0.018  -0.047   0.739   0.673
   10       -0.015  -0.039   0.703   0.649
   11       -0.018  -0.044   0.713   0.652
   12       -0.015  -0.039   0.694   0.640
   13       -0.021  -0.030   0.677   0.626
   14       -0.021  -0.035   0.693   0.637
   15       -0.016  -0.029   0.618   0.573
   16       -0.015  -0.031   0.650   0.604
   17       -0.017  -0.042   0.730   0.672
   18       -0.021  -0.045   0.723   0.657
   19       -0.024  -0.045   0.702   0.633
   20       -0.027  -0.043   0.718   0.649
   21       -0.017  -0.041   0.714   0.656
   22       -0.024  -0.051   0.729   0.654
   23       -0.006  -0.023   0.685   0.655
   24       -0.012  -0.033   0.735   0.689
   25       -0.012  -0.034   0.666   0.620
   26       -0.014  -0.032   0.669   0.623
   27       -0.016  -0.042   0.674   0.616
   28       -0.012  -0.034   0.727   0.681
   29       -0.016  -0.042   0.688   0.630
   30       -0.025  -0.037   0.712   0.650
   31       -0.023  -0.038   0.684   0.623
   32       -0.012  -0.033   0.670   0.625
   33       -0.023  -0.039   0.731   0.669
   34       -0.028  -0.044   0.718   0.646
   35       -0.010  -0.029   0.668   0.629
   36       -0.013  -0.029   0.656   0.613
   37       -0.018  -0.034   0.698   0.646
   38       -0.020  -0.035   0.674   0.620
   39       -0.013  -0.028   0.652   0.611
   40       -0.019  -0.032   0.668   0.618
   41       -0.010  -0.024   0.657   0.623
   42       -0.011  -0.028   0.669   0.630
   43       -0.017  -0.032   0.685   0.636
   44       -0.014  -0.026   0.655   0.614
   45       -0.014  -0.029   0.665   0.622
   46        0.011  -0.010   2.901   2.902
   47        0.010  -0.013   2.878   2.875
   48        0.008  -0.020   2.851   2.840
   49        0.007  -0.020   2.820   2.807
   50        0.003  -0.018   2.757   2.742
   51       -0.000  -0.024   2.718   2.693
   52        0.003  -0.014   2.740   2.729
   53       -0.000  -0.031   2.765   2.734
   54        0.000  -0.028   2.780   2.752
   55        0.004  -0.016   2.767   2.754
   56        0.004  -0.024   2.772   2.752
   57        0.001  -0.023   2.768   2.746
   58        0.012  -0.012   2.853   2.853
   59        0.009  -0.012   2.839   2.837
   60        0.010  -0.008   2.912   2.914
   61        0.013  -0.006   2.906   2.913
   62        0.007  -0.012   2.876   2.872
   63        0.010  -0.012   2.856   2.853
   64        0.010  -0.008   2.841   2.843
--------------------------------------------------
tot         -0.610  -1.904  84.703  82.189
 
 BZINTS: Fermi energy:  0.248484;602.000000 electrons
         Band energy:***********;  BLOECHL correction: -0.005271

 total amount of memory used by VASP MPI-rank0   113068. kBytes
=======================================================================

   base      :      30000. kBytes
   nonlr-proj:      13088. kBytes
   fftplans  :       6402. kBytes
   grid      :      16455. kBytes
   one-center:         93. kBytes
   wavefun   :      47030. kBytes
 
  
  
 General timing and accounting informations for this job:
 ========================================================
  
                  Total CPU time used (sec):      526.692
                            User time (sec):      521.087
                          System time (sec):        5.605
                         Elapsed time (sec):      536.487
  
                   Maximum memory used (kb):      193584.
                   Average memory used (kb):           0.
  
                          Minor page faults:        81133
                          Major page faults:            0
                 Voluntary context switches:         7931
