       N       E                     dE             d eps       ncg     rms          rms(c)
DAV:   1     0.432211667025E+04    0.43221E+04   -0.22777E+05 32640   0.139E+03
DAV:   2    -0.712605089371E+02   -0.43934E+04   -0.40829E+04 32640   0.326E+02
DAV:   3    -0.442060324202E+03   -0.37080E+03   -0.31530E+03 34152   0.134E+02
DAV:   4    -0.457031623148E+03   -0.14971E+02   -0.14597E+02 34761   0.292E+01
DAV:   5    -0.457287740686E+03   -0.25612E+00   -0.25598E+00 36738   0.328E+00
RMM:   6    -0.457295684046E+03   -0.79434E-02   -0.79435E-02 33832   0.523E-01
RMM:   7    -0.457297785903E+03   -0.21019E-02   -0.20973E-02 49819   0.186E-01
RMM:   8    -0.457297840428E+03   -0.54525E-04   -0.51736E-04 48985   0.254E-02
RMM:   9    -0.457297864376E+03   -0.23948E-04   -0.23854E-04 29111   0.740E-03
RMM:  10    -0.457297866128E+03   -0.17518E-05   -0.11714E-05 21452   0.346E-03
RMM:  11    -0.457297866815E+03   -0.68729E-06   -0.66423E-06 20747   0.215E-03
   1 F= -.45729787E+03 E0= -.45729787E+03  d E =0.000000E+00  mag=   138.7745
