 vasp.5.4.4.18Apr17-6-g9f103f2a35 (build Sep 06 2021 19:49:22) complex          
  
 executed on             LinuxIFC date 2022.01.05  12:27:14
 running on   72 total cores
 distrk:  each k-point on   72 cores,    1 groups
 distr:  one band on NCORES_PER_BAND=  24 cores,    3 groups


--------------------------------------------------------------------------------------------------------


 INCAR:
 POTCAR:    PAW_PBE Fe 06Sep2000                  
 POTCAR:    PAW_PBE Ni 02Aug2007                  

 ----------------------------------------------------------------------------- 
|                                                                             |
|           W    W    AA    RRRRR   N    N  II  N    N   GGGG   !!!           |
|           W    W   A  A   R    R  NN   N  II  NN   N  G    G  !!!           |
|           W    W  A    A  R    R  N N  N  II  N N  N  G       !!!           |
|           W WW W  AAAAAA  RRRRR   N  N N  II  N  N N  G  GGG   !            |
|           WW  WW  A    A  R   R   N   NN  II  N   NN  G    G                |
|           W    W  A    A  R    R  N    N  II  N    N   GGGG   !!!           |
|                                                                             |
|      For optimal performance we recommend to set                            |
|        NCORE= 4 - approx SQRT( number of cores)                             |
|      NCORE specifies how many cores store one orbital (NPAR=cpu/NCORE).     |
|      This setting can  greatly improve the performance of VASP for DFT.     |
|      The default,   NCORE=1            might be grossly inefficient         |
|      on modern multi-core architectures or massively parallel machines.     |
|      Do your own testing !!!!                                               |
|      Unfortunately you need to use the default for GW and RPA calculations. |
|      (for HF NCORE is supported but not extensively tested yet)             |
|                                                                             |
 ----------------------------------------------------------------------------- 

 POTCAR:    PAW_PBE Fe 06Sep2000                  
   VRHFIN =Fe:  d7 s1                                                           
   LEXCH  = PE                                                                  
   EATOM  =   594.3153 eV,   43.6809 Ry                                         
                                                                                
   TITEL  = PAW_PBE Fe 06Sep2000                                                
   LULTRA =        F    use ultrasoft PP ?                                      
   IUNSCR =        1    unscreen: 0-lin 1-nonlin 2-no                           
   RPACOR =    2.000    partial core radius                                     
   POMASS =   55.847; ZVAL   =    8.000    mass and valenz                      
   RCORE  =    2.300    outmost cutoff radius                                   
   RWIGS  =    2.460; RWIGS  =    1.302    wigner-seitz radius (au A)           
   ENMAX  =  267.882; ENMIN  =  200.911 eV                                      
   RCLOC  =    1.701    cutoff for local pot                                    
   LCOR   =        T    correct aug charges                                     
   LPAW   =        T    paw PP                                                  
   EAUG   =  511.368                                                            
   DEXC   =    0.000                                                            
   RMAX   =    2.356    core radius for proj-oper                               
   RAUG   =    1.300    factor for augmentation sphere                          
   RDEP   =    2.442    radius for radial grids                                 
   RDEPT  =    1.890    core radius for aug-charge                              
                                                                                
   Atomic configuration                                                         
    9 entries                                                                   
     n  l   j            E        occ.                                          
     1  0  0.50     -6993.8440   2.0000                                         
     2  0  0.50      -814.6047   2.0000                                         
     2  1  1.50      -693.3689   6.0000                                         
     3  0  0.50       -89.4732   2.0000                                         
     3  1  1.50       -55.6373   6.0000                                         
     3  2  2.50        -3.8151   7.0000                                         
     4  0  0.50        -4.2551   1.0000                                         
     4  1  1.50        -3.4015   0.0000                                         
     4  3  2.50        -1.3606   0.0000                                         
   Description                                                                  
     l       E           TYP  RCUT    TYP  RCUT                                 
     2     -3.8151135     23  2.300                                             
     2     -5.1756961     23  2.300                                             
     0     -4.2550963     23  2.300                                             
     0      7.2035603     23  2.300                                             
     1     -2.7211652     23  2.300                                             
     1     18.4316424     23  2.300                                             
  local pseudopotential read in
  partial core-charges read in
  partial kinetic energy density read in
  atomic valenz-charges read in
  non local Contribution for L=           2  read in
    real space projection operators read in
  non local Contribution for L=           2  read in
    real space projection operators read in
  non local Contribution for L=           0  read in
    real space projection operators read in
  non local Contribution for L=           0  read in
    real space projection operators read in
  non local Contribution for L=           1  read in
    real space projection operators read in
  non local Contribution for L=           1  read in
    real space projection operators read in
    PAW grid and wavefunctions read in
 
   number of l-projection  operators is LMAX  =           6
   number of lm-projection operators is LMMAX =          18
 
 POTCAR:    PAW_PBE Ni 02Aug2007                  
   VRHFIN =Ni:                                                                  
   LEXCH  = PE                                                                  
   EATOM  =  1077.6739 eV,   79.2068 Ry                                         
                                                                                
   TITEL  = PAW_PBE Ni 02Aug2007                                                
   LULTRA =        F    use ultrasoft PP ?                                      
   IUNSCR =        1    unscreen: 0-lin 1-nonlin 2-no                           
   RPACOR =    2.000    partial core radius                                     
   POMASS =   58.690; ZVAL   =   10.000    mass and valenz                      
   RCORE  =    2.300    outmost cutoff radius                                   
   RWIGS  =    2.430; RWIGS  =    1.286    wigner-seitz radius (au A)           
   ENMAX  =  269.532; ENMIN  =  202.149 eV                                      
   RCLOC  =    1.201    cutoff for local pot                                    
   LCOR   =        T    correct aug charges                                     
   LPAW   =        T    paw PP                                                  
   EAUG   =  544.565                                                            
   DEXC   =    0.000                                                            
   RMAX   =    2.357    core radius for proj-oper                               
   RAUG   =    1.300    factor for augmentation sphere                          
   RDEP   =    2.390    radius for radial grids                                 
   RDEPT  =    1.838    core radius for aug-charge                              
                                                                                
   Atomic configuration                                                         
    9 entries                                                                   
     n  l   j            E        occ.                                          
     1  0  0.50     -8206.4253   2.0000                                         
     2  0  0.50      -976.1748   2.0000                                         
     2  1  1.50      -839.0571   6.0000                                         
     3  0  0.50      -105.9991   2.0000                                         
     3  1  1.50       -66.4603   6.0000                                         
     3  2  2.50        -4.6458   9.0000                                         
     4  0  0.50        -4.4926   1.0000                                         
     4  1  1.50        -4.0817   0.0000                                         
     4  3  2.50        -1.3606   0.0000                                         
   Description                                                                  
     l       E           TYP  RCUT    TYP  RCUT                                 
     2     -4.6457903     23  2.300                                             
     2     -6.0063729     23  2.300                                             
     0     -4.4925590     23  2.300                                             
     0      5.0102601     23  2.300                                             
     1     -2.7211652     23  2.300                                             
     1     16.5183231     23  2.300                                             
  local pseudopotential read in
  partial core-charges read in
  partial kinetic energy density read in
  atomic valenz-charges read in
  non local Contribution for L=           2  read in
    real space projection operators read in
  non local Contribution for L=           2  read in
    real space projection operators read in
  non local Contribution for L=           0  read in
    real space projection operators read in
  non local Contribution for L=           0  read in
    real space projection operators read in
  non local Contribution for L=           1  read in
    real space projection operators read in
  non local Contribution for L=           1  read in
    real space projection operators read in
    PAW grid and wavefunctions read in
 
   number of l-projection  operators is LMAX  =           6
   number of lm-projection operators is LMMAX =          18
 
 Optimization of the real space projectors (new method)

 maximal supplied QI-value         = 16.25
 optimisation between [QCUT,QGAM] = [ 11.54, 23.24] = [ 37.28,151.24] Ry 
 Optimized for a Real-space Cutoff    1.53 Angstroem

   l    n(q)    QCUT    max X(q) W(low)/X(q) W(high)/X(q)  e(spline) 
   2     10    11.539    80.901    0.11E-03    0.14E-03    0.21E-06
   2     10    11.539    75.754    0.11E-03    0.14E-03    0.22E-06
   0     11    11.539    58.752    0.52E-04    0.18E-04    0.33E-06
   0     11    11.539    30.679    0.44E-04    0.16E-04    0.30E-06
   1     10    11.539    17.977    0.53E-04    0.29E-04    0.13E-06
   1     10    11.539    13.559    0.44E-04    0.25E-04    0.11E-06
 Optimization of the real space projectors (new method)

 maximal supplied QI-value         = 16.25
 optimisation between [QCUT,QGAM] = [ 11.54, 23.24] = [ 37.28,151.24] Ry 
 Optimized for a Real-space Cutoff    1.45 Angstroem

   l    n(q)    QCUT    max X(q) W(low)/X(q) W(high)/X(q)  e(spline) 
   2      9    11.539    60.317    0.19E-03    0.47E-04    0.16E-06
   2      9    11.539    55.921    0.19E-03    0.48E-04    0.16E-06
   0     10    11.539    51.690    0.80E-04    0.50E-04    0.24E-06
   0     10    11.539    30.015    0.73E-04    0.45E-04    0.22E-06
   1     10    11.539    18.849    0.87E-04    0.16E-03    0.71E-07
   1     10    11.539    14.624    0.73E-04    0.13E-03    0.64E-07
  PAW_PBE Fe 06Sep2000                  :
 energy of atom  1       EATOM= -594.3153
 kinetic energy error for atom=    0.0026 (will be added to EATOM!!)
  PAW_PBE Ni 02Aug2007                  :
 energy of atom  2       EATOM=-1077.6739
 kinetic energy error for atom=    0.0030 (will be added to EATOM!!)
 
 
 POSCAR: POSCAR                                  
  positions in direct lattice
  velocities in cartesian coordinates
 exchange correlation table for  LEXCH =        8
   RHO(1)=    0.500       N(1)  =     2000
   RHO(2)=  100.500       N(2)  =     4000
 


--------------------------------------------------------------------------------------------------------


 ion  position               nearest neighbor table
   1  0.003  0.998  0.289-   4 2.50  49 2.50  54 2.52   3 2.53   9 2.53  50 2.53   6 2.53  51 2.54
                            64 2.55  28 2.56  36 2.56  44 2.57
   2  0.502  0.001  0.291-  52 2.49  50 2.50  53 2.50  62 2.52  15 2.52  46 2.53  61 2.53  32 2.54
                            11 2.55   3 2.56  29 2.56  12 2.57
   3  0.753  0.996  0.293-  61 2.47  64 2.49  14 2.49  51 2.51  48 2.51   1 2.53  54 2.53  32 2.55
                            53 2.55   2 2.56  36 2.56  15 2.59
   4  0.251  0.245  0.288-   1 2.50  57 2.50  50 2.51   9 2.51   8 2.52  18 2.52  52 2.52   6 2.52
                            24 2.53  17 2.55  51 2.56  20 2.64
   5  0.089  0.161  0.095-   7 2.41  43 2.47   9 2.49  63 2.54  19 2.55  57 2.59  54 2.60  55 2.62
                            13 2.68
   6  0.086  0.167  0.386-  64 2.50  56 2.51   4 2.52  14 2.53  51 2.53   8 2.53   1 2.53  20 2.54
                            44 2.59
   7  0.330  0.166  0.099-   5 2.41   9 2.42  24 2.43  12 2.47  19 2.48  45 2.48  43 2.49  10 2.57
                            22 2.59
   8  0.335  0.165  0.385-  52 2.49   4 2.52  50 2.52  44 2.53   6 2.53  46 2.54  11 2.56  23 2.57
                            20 2.57
   9  0.168  0.081  0.192-   7 2.42  43 2.46   5 2.49  47 2.50   4 2.51  24 2.52   1 2.53  12 2.54
                            50 2.54  49 2.54  57 2.55  54 2.55
  10  0.583  0.166  0.099-  12 2.43  13 2.45  27 2.46  15 2.49  25 2.50  60 2.52  45 2.54   7 2.57
                            22 2.58
  11  0.594  0.177  0.386-  26 2.45  53 2.48  52 2.50  14 2.50  23 2.55  61 2.55   2 2.55   8 2.56
                            46 2.58
  12  0.422  0.087  0.192-  10 2.43  24 2.43   7 2.47  27 2.47  45 2.49  15 2.50  62 2.52  52 2.53
                             9 2.54  50 2.54   2 2.57  47 2.61
  13  0.827  0.167  0.098-  10 2.45  15 2.47  60 2.51  58 2.53  25 2.53  54 2.56  55 2.56  63 2.59
                             5 2.68
  14  0.837  0.169  0.385-  61 2.48   3 2.49  11 2.50  51 2.50  56 2.51  53 2.51   6 2.53  64 2.53
                            26 2.54
  15  0.667  0.083  0.194-  13 2.47  10 2.49  53 2.50  12 2.50  54 2.52   2 2.52  60 2.53  58 2.54
                            62 2.54  48 2.56  27 2.58   3 2.59
  16  0.993  0.490  0.294-  56 2.44  53 2.46  51 2.49  21 2.51  58 2.53  28 2.53  17 2.54  26 2.55
                            35 2.58  42 2.60  29 2.60  31 2.66
  17  0.248  0.495  0.290-  56 2.48  57 2.49  51 2.52  18 2.53  32 2.54  59 2.54  16 2.54  20 2.55
                            35 2.55   4 2.55  29 2.56  34 2.66
  18  0.498  0.496  0.291-   4 2.52  59 2.52  17 2.53  20 2.53  36 2.54  21 2.54  52 2.54  32 2.55
                            23 2.55  24 2.57  41 2.58  38 2.69
  19  0.339  0.416  0.094-  37 2.46  22 2.48   7 2.48  33 2.53   5 2.55  24 2.58  57 2.59  55 2.60
                            59 2.60
  20  0.336  0.420  0.389-  23 2.49  56 2.51  34 2.52  18 2.53   6 2.54  17 2.55  38 2.57   8 2.57
                             4 2.64
  21  0.746  0.489  0.295-  52 2.46  53 2.47  23 2.49  16 2.51  36 2.53  18 2.54  26 2.56  27 2.59
                            28 2.60  42 2.61  41 2.62  40 2.65
  22  0.586  0.422  0.099-  27 2.43  37 2.45  39 2.46  25 2.46  41 2.47  24 2.47  19 2.48  10 2.58
                             7 2.59
  23  0.585  0.424  0.391-  21 2.49  20 2.49  40 2.52  38 2.54  18 2.55  11 2.55   8 2.57  26 2.57
                            52 2.64
  24  0.420  0.327  0.192-  27 2.41  12 2.43   7 2.43  22 2.47   9 2.52  52 2.52   4 2.53  57 2.56
                            18 2.57  19 2.58  41 2.58  59 2.61
  25  0.827  0.417  0.096-  39 2.45  22 2.46  27 2.47  10 2.50  13 2.53  58 2.54  42 2.58  55 2.59
                            30 2.60
  26  0.836  0.418  0.395-  11 2.45  40 2.49  14 2.54  31 2.54  56 2.55  16 2.55  21 2.56  23 2.57
                            53 2.70
  27  0.662  0.335  0.191-  24 2.41  22 2.43  10 2.46  12 2.47  25 2.47  41 2.48  52 2.55  58 2.56
                            42 2.57  15 2.58  21 2.59  53 2.60
  28  0.003  0.745  0.294-  44 2.46  29 2.47  36 2.52  42 2.53  16 2.53  50 2.55   1 2.56  49 2.57
                            40 2.59  31 2.60  21 2.60  47 2.60
  29  0.249  0.748  0.293-  28 2.47  50 2.50  35 2.51  32 2.52  46 2.53  17 2.56   2 2.56  62 2.56
                            34 2.56  31 2.58  16 2.60  47 2.63
  30  0.086  0.671  0.097-  47 2.46  45 2.48  43 2.48  33 2.52  39 2.52  35 2.53  55 2.55  42 2.55
                            25 2.60
  31  0.090  0.666  0.395-  34 2.49  44 2.50  56 2.52  40 2.54  26 2.54  46 2.55  29 2.58  28 2.60
                            16 2.66
  32  0.497  0.747  0.292-  29 2.52  59 2.53  48 2.53  17 2.54   2 2.54  34 2.54  18 2.55   3 2.55
                            61 2.55  62 2.56  38 2.57  36 2.61
  33  0.330  0.661  0.095-  55 2.49  30 2.52  19 2.53  37 2.53  60 2.56  59 2.57  35 2.60  62 2.61
                            45 2.62
  34  0.339  0.671  0.392-  46 2.48  38 2.49  31 2.49  20 2.52  32 2.54  61 2.56  29 2.56  56 2.57
                            17 2.66
  35  0.164  0.589  0.196-  47 2.46  42 2.47  62 2.51  29 2.51  30 2.53  58 2.53  17 2.55  16 2.58
                            55 2.59  33 2.60  59 2.60  57 2.61
  36  0.753  0.743  0.296-  64 2.51  28 2.52  21 2.53  38 2.53  18 2.54   1 2.56  40 2.56   3 2.56
                            41 2.59  49 2.59  48 2.60  32 2.61
  37  0.580  0.661  0.096-  22 2.45  19 2.46  59 2.52  33 2.53  41 2.54  39 2.54  60 2.56  63 2.57
                            48 2.61
  38  0.587  0.676  0.393-  61 2.48  34 2.49  64 2.51  36 2.53  23 2.54  20 2.57  32 2.57  40 2.60
                            18 2.69
  39  0.832  0.662  0.097-  25 2.45  22 2.46  41 2.47  42 2.51  30 2.52  49 2.53  37 2.54  63 2.54
                            43 2.57
  40  0.839  0.666  0.396-  26 2.49  44 2.51  23 2.52  31 2.54  36 2.56  64 2.57  28 2.59  38 2.60
                            21 2.65
  41  0.672  0.585  0.193-  22 2.47  49 2.47  39 2.47  27 2.48  42 2.49  48 2.50  37 2.54  59 2.55
                            18 2.58  24 2.58  36 2.59  21 2.62
  42  0.919  0.587  0.195-  49 2.43  47 2.47  35 2.47  41 2.49  39 2.51  58 2.52  28 2.53  30 2.55
                            27 2.57  25 2.58  16 2.60  21 2.61
  43  0.086  0.916  0.098-  45 2.43  47 2.44   9 2.46   5 2.47  30 2.48   7 2.49  49 2.53  63 2.54
                            39 2.57
  44  0.089  0.912  0.387-  28 2.46  31 2.50  40 2.51   8 2.53  46 2.54  50 2.55  64 2.55   1 2.57
                             6 2.59
  45  0.327  0.919  0.097-  43 2.43  47 2.47  30 2.48   7 2.48  12 2.49  10 2.54  62 2.56  60 2.59
                            33 2.62
  46  0.342  0.918  0.389-  34 2.48  61 2.49   2 2.53  29 2.53   8 2.54  44 2.54  31 2.55  11 2.58
                            50 2.61
  47  0.163  0.832  0.192-  43 2.44  49 2.45  35 2.46  30 2.46  42 2.47  45 2.47   9 2.50  62 2.53
                            50 2.54  28 2.60  12 2.61  29 2.63
  48  0.669  0.831  0.197-  54 2.50  41 2.50  59 2.51   3 2.51  32 2.53  49 2.54  15 2.56  63 2.57
                            62 2.59  36 2.60  60 2.60  37 2.61
  49  0.919  0.827  0.195-  42 2.43  47 2.45  41 2.47   1 2.50  39 2.53  43 2.53   9 2.54  48 2.54
                            54 2.57  28 2.57  63 2.58  36 2.59
  50  0.254  0.998  0.289-   2 2.50  29 2.50  52 2.51   4 2.51   8 2.52   1 2.53  47 2.54  12 2.54
                             9 2.54  28 2.55  44 2.55  46 2.61
  51  0.999  0.246  0.289-  16 2.49  54 2.49  14 2.50   3 2.51  17 2.52  57 2.52  53 2.52   6 2.53
                            58 2.53   1 2.54  56 2.55   4 2.56
  52  0.501  0.247  0.290-  21 2.46   2 2.49   8 2.49  11 2.50  50 2.51  53 2.51  24 2.52   4 2.52
                            12 2.53  18 2.54  27 2.55  23 2.64
  53  0.750  0.247  0.289-  16 2.46  21 2.47  11 2.48  15 2.50   2 2.50  58 2.51  14 2.51  52 2.51
                            51 2.52   3 2.55  27 2.60  26 2.70
  54  0.914  0.079  0.194-  51 2.49  48 2.50  15 2.52  63 2.52   1 2.52   3 2.53   9 2.55  13 2.56
                            49 2.57  57 2.59  58 2.59   5 2.60
  55  0.083  0.417  0.097-  33 2.49  58 2.53  30 2.55  57 2.56  13 2.56  25 2.59  35 2.59  19 2.60
                             5 2.62
  56  0.086  0.416  0.386-  16 2.44  17 2.48  20 2.51  14 2.51   6 2.51  31 2.52  51 2.55  26 2.55
                            34 2.57
  57  0.171  0.334  0.194-  17 2.49   4 2.50  51 2.52  59 2.52   9 2.55  55 2.56  24 2.56  54 2.59
                            19 2.59  58 2.59   5 2.59  35 2.61
  58  0.916  0.336  0.193-  53 2.51  42 2.52  13 2.53  55 2.53  16 2.53  51 2.53  35 2.53  15 2.54
                            25 2.54  27 2.56  57 2.59  54 2.59
  59  0.419  0.585  0.194-  48 2.51  57 2.52  37 2.52  18 2.52  32 2.53  17 2.54  62 2.55  41 2.55
                            33 2.57  19 2.60  35 2.60  24 2.61
  60  0.582  0.915  0.097-  13 2.51  10 2.52  15 2.53  62 2.54  63 2.55  33 2.56  37 2.56  45 2.59
                            48 2.60
  61  0.592  0.923  0.388-   3 2.47  38 2.48  14 2.48  46 2.49  64 2.53   2 2.53  11 2.55  32 2.55
                            34 2.56
  62  0.415  0.834  0.194-  35 2.51   2 2.52  12 2.52  47 2.53  15 2.54  60 2.54  59 2.55  32 2.56
                            45 2.56  29 2.56  48 2.59  33 2.61
  63  0.834  0.915  0.097-  54 2.52   5 2.54  43 2.54  39 2.54  60 2.55  37 2.57  48 2.57  49 2.58
                            13 2.59
  64  0.840  0.920  0.388-   3 2.49   6 2.50  36 2.51  38 2.51  61 2.53  14 2.53   1 2.55  44 2.55
                            40 2.57
 

IMPORTANT INFORMATION: All symmetrisations will be switched off!
NOSYMM: (Re-)initialisation of all symmetry stuff for point group C_1.

 
 

Automatic generation of k-mesh.
 generate k-points for:    4    4    2
Space group operators:
 irot       det(A)        alpha          n_x          n_y          n_z        tau_x        tau_y        tau_z
    1     1.000000     0.000000     1.000000     0.000000     0.000000     0.000000     0.000000     0.000000
 
 Subroutine IBZKPT returns following result:
 ===========================================
 
 Found     20 irreducible k-points:
 
 Following reciprocal coordinates:
            Coordinates               Weight
  0.000000  0.000000  0.000000      1.000000
  0.250000  0.000000  0.000000      2.000000
  0.500000  0.000000  0.000000      1.000000
  0.000000  0.250000  0.000000      2.000000
  0.250000  0.250000  0.000000      2.000000
  0.500000  0.250000  0.000000      2.000000
 -0.250000  0.250000  0.000000      2.000000
  0.000000  0.500000  0.000000      1.000000
  0.250000  0.500000  0.000000      2.000000
  0.500000  0.500000  0.000000      1.000000
  0.000000  0.000000  0.500000      1.000000
  0.250000  0.000000  0.500000      2.000000
  0.500000  0.000000  0.500000      1.000000
  0.000000  0.250000  0.500000      2.000000
  0.250000  0.250000  0.500000      2.000000
  0.500000  0.250000  0.500000      2.000000
 -0.250000  0.250000  0.500000      2.000000
  0.000000  0.500000  0.500000      1.000000
  0.250000  0.500000  0.500000      2.000000
  0.500000  0.500000  0.500000      1.000000
 
 Following cartesian coordinates:
            Coordinates               Weight
  0.000000  0.000000  0.000000      1.000000
  0.024724  0.014274  0.000000      2.000000
  0.049448  0.028549  0.000000      1.000000
  0.000000  0.028549  0.000000      2.000000
  0.024724  0.042823  0.000000      2.000000
  0.049448  0.057098  0.000000      2.000000
 -0.024724  0.014274  0.000000      2.000000
  0.000000  0.057098  0.000000      1.000000
  0.024724  0.071372  0.000000      2.000000
  0.049448  0.085646  0.000000      1.000000
  0.000000  0.000000  0.023460      1.000000
  0.024724  0.014274  0.023460      2.000000
  0.049448  0.028549  0.023460      1.000000
  0.000000  0.028549  0.023460      2.000000
  0.024724  0.042823  0.023460      2.000000
  0.049448  0.057098  0.023460      2.000000
 -0.024724  0.014274  0.023460      2.000000
  0.000000  0.057098  0.023460      1.000000
  0.024724  0.071372  0.023460      2.000000
  0.049448  0.085646  0.023460      1.000000
 
 TETIRR: Found     96 inequivalent tetrahedra from      192


--------------------------------------------------------------------------------------------------------




 Dimension of arrays:
   k-points           NKPTS =     20   k-points in BZ     NKDIM =     20   number of bands    NBANDS=    408
   number of dos      NEDOS =    301   number of ions     NIONS =     64
   non local maximal  LDIM  =      6   non local SUM 2l+1 LMDIM =     18
   total plane-waves  NPLWV = ******
   max r-space proj   IRMAX =   8251   max aug-charges    IRDMAX=  19526
   dimension x,y,z NGX =    80 NGY =   80 NGZ =  160
   dimension x,y,z NGXF=   160 NGYF=  160 NGZF=  320
   support grid    NGXF=   160 NGYF=  160 NGZF=  320
   ions per type =              49  15
   NGX,Y,Z   is equivalent  to a cutoff of  13.15, 13.15, 12.48 a.u.
   NGXF,Y,Z  is equivalent  to a cutoff of  26.31, 26.31, 24.96 a.u.

 SYSTEM =  SQS-NiFe                                
 POSCAR =  POSCAR                                  

 Startparameter for this run:
   NWRITE =      2    write-flag & timer
   PREC   = accura    normal or accurate (medium, high low for compatibility)
   ISTART =      0    job   : 0-new  1-cont  2-samecut
   ICHARG =     11    charge: 1-file 2-atom 10-const
   ISPIN  =      2    spin polarized calculation?
   LNONCOLLINEAR =      F non collinear calculations
   LSORBIT =      F    spin-orbit coupling
   INIWAV =      1    electr: 0-lowe 1-rand  2-diag
   LASPH  =      F    aspherical Exc in radial PAW
   METAGGA=      F    non-selfconsistent MetaGGA calc.

 Electronic Relaxation 1
   ENCUT  =  520.0 eV  38.22 Ry    6.18 a.u.  18.80 18.80 39.63*2*pi/ulx,y,z
   ENINI  =  520.0     initial cutoff
   ENAUG  =  544.6 eV  augmentation charge cutoff
   NELM   =    200;   NELMIN=  2; NELMDL= -5     # of ELM steps 
   EDIFF  = 0.1E-05   stopping-criterion for ELM
   LREAL  =      T    real-space projection
   NLSPLINE    = F    spline interpolate recip. space projectors
   LCOMPAT=      F    compatible to vasp.4.4
   GGA_COMPAT  = T    GGA compatible to vasp.4.4-vasp.4.6
   LMAXPAW     = -100 max onsite density
   LMAXMIX     =    2 max onsite mixed and CHGCAR
   VOSKOWN=      0    Vosko Wilk Nusair interpolation
   ROPT   =   -0.00025  -0.00025
 Ionic relaxation
   EDIFFG = -.2E-01   stopping-criterion for IOM
   NSW    =      0    number of steps for IOM
   NBLOCK =      1;   KBLOCK =      1    inner block; outer block 
   IBRION =     -1    ionic relax: 0-MD 1-quasi-New 2-CG
   NFREE  =      0    steps in history (QN), initial steepest desc. (CG)
   ISIF   =      2    stress and relaxation
   IWAVPR =     10    prediction:  0-non 1-charg 2-wave 3-comb
   ISYM   =      0    0-nonsym 1-usesym 2-fastsym
   LCORR  =      T    Harris-Foulkes like correction to forces

   POTIM  = 0.5000    time-step for ionic-motion
   TEIN   =    0.0    initial temperature
   TEBEG  =    0.0;   TEEND  =   0.0 temperature during run
   SMASS  =  -3.00    Nose mass-parameter (am)
   estimated Nose-frequenzy (Omega)   =  0.10E-29 period in steps =****** mass=  -0.234E-26a.u.
   SCALEE = 1.0000    scale energy and forces
   NPACO  =    256;   APACO  = 16.0  distance and # of slots for P.C.
   PSTRESS=    0.0 pullay stress

  Mass of Ions in am
   POMASS =  55.85 58.69
  Ionic Valenz
   ZVAL   =   8.00 10.00
  Atomic Wigner-Seitz radii
   RWIGS  =  -1.00 -1.00
  virtual crystal weights 
   VCA    =   1.00  1.00
   NELECT =     542.0000    total number of electrons
   NUPDOWN=      -1.0000    fix difference up-down

 DOS related values:
   EMIN   =  10.00;   EMAX   =-10.00  energy-range for DOS
   EFERMI =   0.00
   ISMEAR =    -5;   SIGMA  =   0.20  broadening in eV -4-tet -1-fermi 0-gaus

 Electronic relaxation 2 (details)
   IALGO  =     68    algorithm
   LDIAG  =      T    sub-space diagonalisation (order eigenvalues)
   LSUBROT=      F    optimize rotation matrix (better conditioning)
   TURBO    =      0    0=normal 1=particle mesh
   IRESTART =      0    0=no restart 2=restart with 2 vectors
   NREBOOT  =      0    no. of reboots
   NMIN     =      0    reboot dimension
   EREF     =   0.00    reference energy to select bands
   IMIX   =      4    mixing-type and parameters
     AMIX     =   0.40;   BMIX     =  1.00
     AMIX_MAG =   1.60;   BMIX_MAG =  1.00
     AMIN     =   0.10
     WC   =   100.;   INIMIX=   1;  MIXPRE=   1;  MAXMIX= -45

 Intra band minimization:
   WEIMIN = 0.0000     energy-eigenvalue tresh-hold
   EBREAK =  0.61E-09  absolut break condition
   DEPER  =   0.30     relativ break condition  

   TIME   =   0.40     timestep for ELM

  volume/ion in A,a.u.               =      29.49       198.99
  Fermi-wavevector in a.u.,A,eV,Ry     =   1.080118  2.041127 15.873299  1.166655
  Thomas-Fermi vector in A             =   2.216101
 
 Write flags
   LWAVE        =      F    write WAVECAR
   LDOWNSAMPLE  =      F    k-point downsampling of WAVECAR
   LCHARG       =      F    write CHGCAR
   LVTOT        =      F    write LOCPOT, total local potential
   LVHAR        =      F    write LOCPOT, Hartree potential only
   LELF         =      F    write electronic localiz. function (ELF)
   LORBIT       =     11    0 simple, 1 ext, 2 COOP (PROOUT), +10 PAW based schemes


 Dipole corrections
   LMONO  =      F    monopole corrections only (constant potential shift)
   LDIPOL =      T    correct potential (dipole corrections)
   IDIPOL =      3    1-x, 2-y, 3-z, 4-all directions 
   EPSILON=  1.0000000 bulk dielectric constant

 Exchange correlation treatment:
   GGA     =    --    GGA type
   LEXCH   =     8    internal setting for exchange type
   VOSKOWN=      0    Vosko Wilk Nusair interpolation
   LHFCALC =     F    Hartree Fock is set to
   LHFONE  =     F    Hartree Fock one center treatment
   AEXX    =    0.0000 exact exchange contribution

 Linear response parameters
   LEPSILON=     F    determine dielectric tensor
   LRPA    =     F    only Hartree local field effects (RPA)
   LNABLA  =     F    use nabla operator in PAW spheres
   LVEL    =     F    velocity operator in full k-point grid
   LINTERFAST=   F  fast interpolation
   KINTER  =     0    interpolate to denser k-point grid
   CSHIFT  =0.1000    complex shift for real part using Kramers Kronig
   OMEGAMAX=  -1.0    maximum frequency
   DEG_THRESHOLD= 0.2000000E-02 threshold for treating states as degnerate
   RTIME   =   -0.100 relaxation time in fs
  (WPLASMAI=    0.000 imaginary part of plasma frequency in eV, 0.658/RTIME)
   DFIELD  = 0.0000000 0.0000000 0.0000000 field for delta impulse in time
 
 Orbital magnetization related:
   ORBITALMAG=     F  switch on orbital magnetization
   LCHIMAG   =     F  perturbation theory with respect to B field
   DQ        =  0.001000  dq finite difference perturbation B field
   LLRAUG    =     F  two centre corrections for induced B field



--------------------------------------------------------------------------------------------------------


 Static calculation
 charge density and potential remain constant during run
 spin polarized calculation
 RMM-DIIS sequential band-by-band and
  variant of blocked Davidson during initial phase
 perform sub-space diagonalisation
    before iterative eigenvector-optimisation
 no mixing
 using additional bands          137
 real space projection scheme for non local part
 use partial core corrections
 calculate Harris-corrections to forces 
   (improved forces if not selfconsistent)
 use gradient corrections 
 WARNING: stress and forces are not correct
  (second derivative of E(xc) not defined)
 use of overlap-Matrix (Vanderbilt PP)
 Fermi weights with tetrahedron method with Bloechl corrections


--------------------------------------------------------------------------------------------------------


  energy-cutoff  :      520.00
  volume of cell :     1887.17
      direct lattice vectors                 reciprocal lattice vectors
    10.111630000  0.000000000  0.000000000     0.098896024  0.057097646  0.000000000
    -5.055815000  8.756928450  0.000000000     0.000000000  0.114195292  0.000000000
     0.000000000  0.000000000 21.312645990     0.000000000  0.000000000  0.046920500

  length of vectors
    10.111630000 10.111629997 21.312645990     0.114195292  0.114195292  0.046920500


 
 k-points in units of 2pi/SCALE and weight: read from INCAR                         
   0.00000000  0.00000000  0.00000000       0.031
   0.02472401  0.01427441  0.00000000       0.062
   0.04944801  0.02854882  0.00000000       0.031
   0.00000000  0.02854882  0.00000000       0.062
   0.02472401  0.04282323  0.00000000       0.062
   0.04944801  0.05709765  0.00000000       0.062
  -0.02472401  0.01427441  0.00000000       0.062
   0.00000000  0.05709765  0.00000000       0.031
   0.02472401  0.07137206  0.00000000       0.062
   0.04944801  0.08564647  0.00000000       0.031
   0.00000000  0.00000000  0.02346025       0.031
   0.02472401  0.01427441  0.02346025       0.062
   0.04944801  0.02854882  0.02346025       0.031
   0.00000000  0.02854882  0.02346025       0.062
   0.02472401  0.04282323  0.02346025       0.062
   0.04944801  0.05709765  0.02346025       0.062
  -0.02472401  0.01427441  0.02346025       0.062
   0.00000000  0.05709765  0.02346025       0.031
   0.02472401  0.07137206  0.02346025       0.062
   0.04944801  0.08564647  0.02346025       0.031
 
 k-points in reciprocal lattice and weights: read from INCAR                         
   0.00000000  0.00000000  0.00000000       0.031
   0.25000000  0.00000000  0.00000000       0.062
   0.50000000  0.00000000  0.00000000       0.031
   0.00000000  0.25000000  0.00000000       0.062
   0.25000000  0.25000000  0.00000000       0.062
   0.50000000  0.25000000  0.00000000       0.062
  -0.25000000  0.25000000  0.00000000       0.062
   0.00000000  0.50000000  0.00000000       0.031
   0.25000000  0.50000000  0.00000000       0.062
   0.50000000  0.50000000  0.00000000       0.031
   0.00000000  0.00000000  0.50000000       0.031
   0.25000000  0.00000000  0.50000000       0.062
   0.50000000  0.00000000  0.50000000       0.031
   0.00000000  0.25000000  0.50000000       0.062
   0.25000000  0.25000000  0.50000000       0.062
   0.50000000  0.25000000  0.50000000       0.062
  -0.25000000  0.25000000  0.50000000       0.062
   0.00000000  0.50000000  0.50000000       0.031
   0.25000000  0.50000000  0.50000000       0.062
   0.50000000  0.50000000  0.50000000       0.031
 
 position of ions in fractional coordinates (direct lattice) 
   0.00340430  0.99773305  0.28923196
   0.50239265  0.00123354  0.29074954
   0.75311832  0.99639765  0.29256869
   0.25076130  0.24467305  0.28829019
   0.08873200  0.16149400  0.09503655
   0.08615331  0.16702288  0.38550796
   0.32962600  0.16609800  0.09949802
   0.33545941  0.16517202  0.38530955
   0.16766300  0.08094400  0.19172241
   0.58333000  0.16550300  0.09887366
   0.59431980  0.17694901  0.38641453
   0.42207800  0.08742500  0.19156116
   0.82651500  0.16651000  0.09770193
   0.83729758  0.16884002  0.38549457
   0.66737600  0.08327700  0.19362076
   0.99349478  0.48959519  0.29407877
   0.24761552  0.49513932  0.29029108
   0.49822415  0.49617940  0.29056308
   0.33859900  0.41583700  0.09384100
   0.33584686  0.41961968  0.38890013
   0.74554759  0.48930710  0.29455543
   0.58633600  0.42229400  0.09867290
   0.58451431  0.42385460  0.39071589
   0.42032800  0.32671800  0.19226484
   0.82677100  0.41676200  0.09643693
   0.83604497  0.41822473  0.39468158
   0.66249300  0.33542400  0.19079821
   0.00331089  0.74497340  0.29448649
   0.24890519  0.74839727  0.29345453
   0.08604600  0.67086900  0.09664380
   0.09015984  0.66618376  0.39546284
   0.49724640  0.74737736  0.29216122
   0.33005900  0.66135600  0.09463213
   0.33860835  0.67058936  0.39203908
   0.16407000  0.58904200  0.19558362
   0.75262818  0.74277054  0.29578158
   0.58008200  0.66096300  0.09597033
   0.58713338  0.67597371  0.39281505
   0.83213700  0.66199500  0.09747502
   0.83906896  0.66607964  0.39555605
   0.67214400  0.58529400  0.19313760
   0.91907500  0.58733100  0.19487907
   0.08603600  0.91635500  0.09815022
   0.08851054  0.91234865  0.38736246
   0.32743000  0.91932200  0.09737653
   0.34246768  0.91784385  0.38939102
   0.16274300  0.83153600  0.19150654
   0.66878300  0.83083000  0.19650084
   0.91852300  0.82706000  0.19503131
   0.25403259  0.99839408  0.28880085
   0.99883528  0.24629654  0.28854110
   0.50131526  0.24666551  0.29046790
   0.75030742  0.24746567  0.28937217
   0.91424100  0.07929400  0.19382007
   0.08260800  0.41708000  0.09669464
   0.08621856  0.41563669  0.38581683
   0.17077300  0.33437100  0.19389387
   0.91567000  0.33646400  0.19341477
   0.41923600  0.58471500  0.19420852
   0.58190700  0.91526900  0.09685385
   0.59151139  0.92332142  0.38771966
   0.41467000  0.83428900  0.19444763
   0.83399900  0.91457100  0.09684514
   0.83962988  0.91969935  0.38820830
 
 position of ions in cartesian coordinates  (Angst):
  -5.00993069  8.73707690  6.16429835
   5.07377203  0.01080199  6.19664201
   2.57765166  8.72538292  6.23541285
   1.29858385  2.14258440  6.14422671
   0.08074137  1.41419140  2.02548035
   0.02671361  1.46260743  8.21619459
   2.49329539  1.45450830  2.12056608
   2.55696231  1.44639953  8.21196596
   1.28610833  0.70882082  4.08611185
   5.06166458  1.44929793  2.10725931
   5.11492046  1.54952980  8.23551607
   3.82589194  0.76557447  4.08267519
   7.51557011  1.45811616  2.08228665
   7.61281941  1.47852001  8.21590924
   6.32722608  0.72925073  4.12657071
   7.57054890  4.28735009  6.26759680
   0.00046373  4.33589960  6.18687111
   2.52926697  4.34500753  6.19266812
   1.32139286  3.64145486  2.00000001
   1.27443967  3.67457952  8.28849084
   5.06485520  4.28482729  6.27775559
   3.79377235  3.69799834  2.10298059
   3.76746200  3.71166442  8.32718940
   2.59837545  2.86104615  4.09767247
   6.25293088  3.64955501  2.05532615
   6.33931056  3.66236400  8.41170877
   5.00304240  2.93728397  4.06641471
  -3.73296920  6.52367873  6.27628623
  -1.26692095  6.55366139  6.25429256
  -2.52172424  5.87475183  2.05973510
  -2.45643896  5.83372354  8.42835946
   1.24936996  6.54473003  6.22672876
  -0.00625910  5.79144717  2.01686109
   0.03350660  5.87230303  8.35539017
  -1.31907225  5.15819865  4.16840445
   3.85498723  6.50438845  6.30388821
   2.52386790  5.78800570  2.04538167
   2.51927742  5.91945343  8.37192816
   5.06733720  5.79704285  2.07745059
   5.11677948  5.83281171  8.43034616
   3.83733325  5.12537768  4.11627330
   6.32390946  5.14321554  4.15338863
  -3.76295716  8.02445517  2.09184089
  -3.71768013  7.98937181  8.25571907
  -1.33707095  8.05043698  2.07535151
  -1.17754224  8.03749296  8.29895301
  -2.55849518  7.28170126  4.08151109
   2.56196347  7.27551886  4.18795284
   5.10630237  7.24250524  4.15663327
  -2.47901218  8.74286552  6.15511031
   8.85462300  2.15680118  6.14957432
   3.82201926  2.16003220  6.19063942
   6.33569036  2.16703916  6.16728660
   8.84357093  0.69437188  4.13081854
  -1.27337779  3.65233972  2.06081863
  -1.22957203  3.63970075  8.22277747
   0.03627547  2.92806292  4.13239141
   7.55781650  2.94639117  4.12218052
   1.28294845  5.12030742  4.13909744
   1.25659754  8.01494515  2.06421182
   1.31300200  8.08545961  8.26333196
  -0.02502123  7.30580908  4.14419350
   3.80918753  8.00883281  2.06402618
   3.84019687  8.05374143  8.27374596
 


--------------------------------------------------------------------------------------------------------


 k-point  1 :   0.0000 0.0000 0.0000  plane waves:   50797
 k-point  2 :   0.2500 0.0000 0.0000  plane waves:   50801
 k-point  3 :   0.5000 0.0000 0.0000  plane waves:   50846
 k-point  4 :   0.0000 0.2500 0.0000  plane waves:   50801
 k-point  5 :   0.2500 0.2500 0.0000  plane waves:   50821
 k-point  6 :   0.5000 0.2500 0.0000  plane waves:   50821
 k-point  7 :  -0.2500 0.2500 0.0000  plane waves:   50801
 k-point  8 :   0.0000 0.5000 0.0000  plane waves:   50846
 k-point  9 :   0.2500 0.5000 0.0000  plane waves:   50821
 k-point 10 :   0.5000 0.5000 0.0000  plane waves:   50846
 k-point 11 :   0.0000 0.0000 0.5000  plane waves:   50804
 k-point 12 :   0.2500 0.0000 0.5000  plane waves:   50810
 k-point 13 :   0.5000 0.0000 0.5000  plane waves:   50804
 k-point 14 :   0.0000 0.2500 0.5000  plane waves:   50810
 k-point 15 :   0.2500 0.2500 0.5000  plane waves:   50838
 k-point 16 :   0.5000 0.2500 0.5000  plane waves:   50838
 k-point 17 :  -0.2500 0.2500 0.5000  plane waves:   50810
 k-point 18 :   0.0000 0.5000 0.5000  plane waves:   50804
 k-point 19 :   0.2500 0.5000 0.5000  plane waves:   50838
 k-point 20 :   0.5000 0.5000 0.5000  plane waves:   50804

 maximum and minimum number of plane-waves per node :      2151     2086

 maximum number of plane-waves:     50846
 maximum index in each direction: 
   IXMAX=   19   IYMAX=   18   IZMAX=   39
   IXMIN=  -19   IYMIN=  -19   IZMIN=  -40


 real space projection operators:
  total allocation   :      68897.53 KBytes
  max/ min on nodes  :       3467.67       2535.75


 parallel 3D FFT for wavefunctions:
    minimum data exchange during FFTs selected (reduces bandwidth)
 parallel 3D FFT for charge:
    minimum data exchange during FFTs selected (reduces bandwidth)


 total amount of memory used by VASP MPI-rank0   255441. kBytes
=======================================================================

   base      :      30000. kBytes
   nonlr-proj:      13178. kBytes
   fftplans  :       6403. kBytes
   grid      :      16455. kBytes
   one-center:         93. kBytes
   wavefun   :     189312. kBytes
 
     INWAV:  cpu time    0.0000: real time    0.0001
 initial charge density was supplied:
 number of electron     541.9999983 magnetization     138.7744911
 keeping initial charge density in first step


--------------------------------------------------------------------------------------------------------


 Maximum index for non-local projection operator          764
 Maximum index for augmentation-charges         1127 (set IRDMAX)


--------------------------------------------------------------------------------------------------------


 First call to EWALD:  gamma=   0.143
 Maximum number of real-space cells 4x 4x 2
 Maximum number of reciprocal cells 2x 2x 4

    FEWALD:  cpu time    0.0040: real time    0.0036


--------------------------------------- Iteration      1(   1)  ---------------------------------------


    POTLOK:  cpu time    0.2490: real time    0.2523
    SETDIJ:  cpu time    0.0170: real time    0.0187
     EDDAV:  cpu time  100.2958: real time  101.5189
 BZINTS: Fermi energy: 10.411778;542.000000 electrons
         Band energy:3406.819778;  BLOECHL correction: -0.009232
       DOS:  cpu time    0.1830: real time    0.1838
    --------------------------------------------
      LOOP:  cpu time  100.7447: real time  101.9738

 eigenvalue-minimisations  : 32640
 total energy-change (2. order) : 0.4322117E+04  (-0.2277677E+05)
 number of electron     541.9999983 magnetization     138.7744911
 augmentation part      541.9999983 magnetization     138.7744911

 DIPCOR: dipole corrections for dipol
 direction  3 min pos   232,
 dipolmoment           0.000000      0.000000     -0.020183 electrons x Angstroem
 Tr[quadrupol]     -9155.292402

 energy correction for charged system         0.000000 eV
 dipol+quadrupol energy correction           -0.000020 eV
 added-field ion interaction          0.463496 eV  (added to PSCEN)


 Free energy of the ion-electron system (eV)
  ---------------------------------------------------
  alpha Z        PSCENC =      1435.96423256
  Ewald energy   TEWEN  =    164945.13496738
  -Hartree energ DENC   =   -209952.23487660
  -exchange      EXHF   =         0.00000000
  -V(xc)+E(xc)   XCENC  =       674.40852455
  PAW double counting   =     51048.48362464   -52522.84472573
  entropy T*S    EENTRO =         0.00000000
  eigenvalues    EBANDS =      3406.81977793
  atomic energy  EATOM  =     45286.38514550
  Solvation  Ediel_sol  =         0.00000000
  ---------------------------------------------------
  free energy    TOTEN  =      4322.11667025 eV

  energy without entropy =     4322.11667025  energy(sigma->0) =     4322.11667025


--------------------------------------------------------------------------------------------------------




--------------------------------------- Iteration      1(   2)  ---------------------------------------


     EDDAV:  cpu time   98.1061: real time   98.7635
 BZINTS: Fermi energy:  0.783864;542.000000 electrons
         Band energy:-986.557401;  BLOECHL correction: -0.011569
       DOS:  cpu time    0.1770: real time    0.1771
    --------------------------------------------
      LOOP:  cpu time   98.2831: real time   98.9406

 eigenvalue-minimisations  : 32640
 total energy-change (2. order) :-0.4393377E+04  (-0.4082908E+04)
 number of electron     541.9999983 magnetization     138.7744911
 augmentation part      541.9999983 magnetization     138.7744911

 DIPCOR: dipole corrections for dipol
 direction  3 min pos   232,
 dipolmoment           0.000000      0.000000     -0.020183 electrons x Angstroem
 Tr[quadrupol]     -9155.292402

 energy correction for charged system         0.000000 eV
 dipol+quadrupol energy correction           -0.000020 eV
 added-field ion interaction          0.463496 eV  (added to PSCEN)


 Free energy of the ion-electron system (eV)
  ---------------------------------------------------
  alpha Z        PSCENC =      1435.96423256
  Ewald energy   TEWEN  =    164945.13496738
  -Hartree energ DENC   =   -209952.23487660
  -exchange      EXHF   =         0.00000000
  -V(xc)+E(xc)   XCENC  =       674.40852455
  PAW double counting   =     51048.48362464   -52522.84472573
  entropy T*S    EENTRO =         0.00000000
  eigenvalues    EBANDS =      -986.55740125
  atomic energy  EATOM  =     45286.38514550
  Solvation  Ediel_sol  =         0.00000000
  ---------------------------------------------------
  free energy    TOTEN  =       -71.26050894 eV

  energy without entropy =      -71.26050894  energy(sigma->0) =      -71.26050894


--------------------------------------------------------------------------------------------------------




--------------------------------------- Iteration      1(   3)  ---------------------------------------


     EDDAV:  cpu time  102.1765: real time  102.5439
 BZINTS: Fermi energy: -0.245126;542.000000 electrons
         Band energy:***********;  BLOECHL correction: -0.137352
       DOS:  cpu time    0.1950: real time    0.1951
    --------------------------------------------
      LOOP:  cpu time  102.3714: real time  102.7390

 eigenvalue-minimisations  : 34152
 total energy-change (2. order) :-0.3707998E+03  (-0.3152984E+03)
 number of electron     541.9999983 magnetization     138.7744911
 augmentation part      541.9999983 magnetization     138.7744911

 DIPCOR: dipole corrections for dipol
 direction  3 min pos   232,
 dipolmoment           0.000000      0.000000     -0.020183 electrons x Angstroem
 Tr[quadrupol]     -9155.292402

 energy correction for charged system         0.000000 eV
 dipol+quadrupol energy correction           -0.000020 eV
 added-field ion interaction          0.463496 eV  (added to PSCEN)


 Free energy of the ion-electron system (eV)
  ---------------------------------------------------
  alpha Z        PSCENC =      1435.96423256
  Ewald energy   TEWEN  =    164945.13496738
  -Hartree energ DENC   =   -209952.23487660
  -exchange      EXHF   =         0.00000000
  -V(xc)+E(xc)   XCENC  =       674.40852455
  PAW double counting   =     51048.48362464   -52522.84472573
  entropy T*S    EENTRO =         0.00000000
  eigenvalues    EBANDS =     -1357.35721652
  atomic energy  EATOM  =     45286.38514550
  Solvation  Ediel_sol  =         0.00000000
  ---------------------------------------------------
  free energy    TOTEN  =      -442.06032420 eV

  energy without entropy =     -442.06032420  energy(sigma->0) =     -442.06032420


--------------------------------------------------------------------------------------------------------




--------------------------------------- Iteration      1(   4)  ---------------------------------------


     EDDAV:  cpu time  103.6872: real time  104.0554
 BZINTS: Fermi energy: -0.284179;542.000000 electrons
         Band energy:***********;  BLOECHL correction: -0.134307
       DOS:  cpu time    0.1770: real time    0.1766
    --------------------------------------------
      LOOP:  cpu time  103.8642: real time  104.2320

 eigenvalue-minimisations  : 34761
 total energy-change (2. order) :-0.1497130E+02  (-0.1459690E+02)
 number of electron     541.9999983 magnetization     138.7744911
 augmentation part      541.9999983 magnetization     138.7744911

 DIPCOR: dipole corrections for dipol
 direction  3 min pos   232,
 dipolmoment           0.000000      0.000000     -0.020183 electrons x Angstroem
 Tr[quadrupol]     -9155.292402

 energy correction for charged system         0.000000 eV
 dipol+quadrupol energy correction           -0.000020 eV
 added-field ion interaction          0.463496 eV  (added to PSCEN)


 Free energy of the ion-electron system (eV)
  ---------------------------------------------------
  alpha Z        PSCENC =      1435.96423256
  Ewald energy   TEWEN  =    164945.13496738
  -Hartree energ DENC   =   -209952.23487660
  -exchange      EXHF   =         0.00000000
  -V(xc)+E(xc)   XCENC  =       674.40852455
  PAW double counting   =     51048.48362464   -52522.84472573
  entropy T*S    EENTRO =         0.00000000
  eigenvalues    EBANDS =     -1372.32851546
  atomic energy  EATOM  =     45286.38514550
  Solvation  Ediel_sol  =         0.00000000
  ---------------------------------------------------
  free energy    TOTEN  =      -457.03162315 eV

  energy without entropy =     -457.03162315  energy(sigma->0) =     -457.03162315


--------------------------------------------------------------------------------------------------------




--------------------------------------- Iteration      1(   5)  ---------------------------------------


     EDDAV:  cpu time  107.9466: real time  108.2730
 BZINTS: Fermi energy: -0.284999;542.000000 electrons
         Band energy:***********;  BLOECHL correction: -0.134034
       DOS:  cpu time    0.1840: real time    0.1843
    --------------------------------------------
      LOOP:  cpu time  108.1306: real time  108.4573

 eigenvalue-minimisations  : 36738
 total energy-change (2. order) :-0.2561175E+00  (-0.2559784E+00)
 number of electron     541.9999983 magnetization     138.7744911
 augmentation part      541.9999983 magnetization     138.7744911

 DIPCOR: dipole corrections for dipol
 direction  3 min pos   232,
 dipolmoment           0.000000      0.000000     -0.020183 electrons x Angstroem
 Tr[quadrupol]     -9155.292402

 energy correction for charged system         0.000000 eV
 dipol+quadrupol energy correction           -0.000020 eV
 added-field ion interaction          0.463496 eV  (added to PSCEN)


 Free energy of the ion-electron system (eV)
  ---------------------------------------------------
  alpha Z        PSCENC =      1435.96423256
  Ewald energy   TEWEN  =    164945.13496738
  -Hartree energ DENC   =   -209952.23487660
  -exchange      EXHF   =         0.00000000
  -V(xc)+E(xc)   XCENC  =       674.40852455
  PAW double counting   =     51048.48362464   -52522.84472573
  entropy T*S    EENTRO =         0.00000000
  eigenvalues    EBANDS =     -1372.58463300
  atomic energy  EATOM  =     45286.38514550
  Solvation  Ediel_sol  =         0.00000000
  ---------------------------------------------------
  free energy    TOTEN  =      -457.28774069 eV

  energy without entropy =     -457.28774069  energy(sigma->0) =     -457.28774069


--------------------------------------------------------------------------------------------------------




--------------------------------------- Iteration      1(   6)  ---------------------------------------


    EDDIAG:  cpu time   14.6178: real time   14.6676
  RMM-DIIS:  cpu time   60.9727: real time   61.2117
    ORTHCH:  cpu time    2.6196: real time    2.6210
 BZINTS: Fermi energy: -0.285029;542.000000 electrons
         Band energy:***********;  BLOECHL correction: -0.134029
       DOS:  cpu time    0.1850: real time    0.1850
    --------------------------------------------
      LOOP:  cpu time   78.3951: real time   78.6853

 eigenvalue-minimisations  : 33832
 total energy-change (2. order) :-0.7943359E-02  (-0.7943545E-02)
 number of electron     541.9999983 magnetization     138.7744911
 augmentation part      541.9999983 magnetization     138.7744911

 DIPCOR: dipole corrections for dipol
 direction  3 min pos   232,
 dipolmoment           0.000000      0.000000     -0.020183 electrons x Angstroem
 Tr[quadrupol]     -9155.292402

 energy correction for charged system         0.000000 eV
 dipol+quadrupol energy correction           -0.000020 eV
 added-field ion interaction          0.463496 eV  (added to PSCEN)


 Free energy of the ion-electron system (eV)
  ---------------------------------------------------
  alpha Z        PSCENC =      1435.96423256
  Ewald energy   TEWEN  =    164945.13496738
  -Hartree energ DENC   =   -209952.23487660
  -exchange      EXHF   =         0.00000000
  -V(xc)+E(xc)   XCENC  =       674.40852455
  PAW double counting   =     51048.48362464   -52522.84472573
  entropy T*S    EENTRO =         0.00000000
  eigenvalues    EBANDS =     -1372.59257636
  atomic energy  EATOM  =     45286.38514550
  Solvation  Ediel_sol  =         0.00000000
  ---------------------------------------------------
  free energy    TOTEN  =      -457.29568405 eV

  energy without entropy =     -457.29568405  energy(sigma->0) =     -457.29568405


--------------------------------------------------------------------------------------------------------




--------------------------------------- Iteration      1(   7)  ---------------------------------------


    EDDIAG:  cpu time   14.8687: real time   14.8838
  RMM-DIIS:  cpu time   89.1384: real time   89.5696
    ORTHCH:  cpu time    2.5586: real time    2.5606
 BZINTS: Fermi energy: -0.285034;542.000000 electrons
         Band energy:***********;  BLOECHL correction: -0.134028
       DOS:  cpu time    0.1690: real time    0.1694
    --------------------------------------------
      LOOP:  cpu time  106.7348: real time  107.1835

 eigenvalue-minimisations  : 49819
 total energy-change (2. order) :-0.2101857E-02  (-0.2097252E-02)
 number of electron     541.9999983 magnetization     138.7744911
 augmentation part      541.9999983 magnetization     138.7744911

 DIPCOR: dipole corrections for dipol
 direction  3 min pos   232,
 dipolmoment           0.000000      0.000000     -0.020183 electrons x Angstroem
 Tr[quadrupol]     -9155.292402

 energy correction for charged system         0.000000 eV
 dipol+quadrupol energy correction           -0.000020 eV
 added-field ion interaction          0.463496 eV  (added to PSCEN)


 Free energy of the ion-electron system (eV)
  ---------------------------------------------------
  alpha Z        PSCENC =      1435.96423256
  Ewald energy   TEWEN  =    164945.13496738
  -Hartree energ DENC   =   -209952.23487660
  -exchange      EXHF   =         0.00000000
  -V(xc)+E(xc)   XCENC  =       674.40852455
  PAW double counting   =     51048.48362464   -52522.84472573
  entropy T*S    EENTRO =         0.00000000
  eigenvalues    EBANDS =     -1372.59467822
  atomic energy  EATOM  =     45286.38514550
  Solvation  Ediel_sol  =         0.00000000
  ---------------------------------------------------
  free energy    TOTEN  =      -457.29778590 eV

  energy without entropy =     -457.29778590  energy(sigma->0) =     -457.29778590


--------------------------------------------------------------------------------------------------------




--------------------------------------- Iteration      1(   8)  ---------------------------------------


    EDDIAG:  cpu time   14.7198: real time   14.7434
  RMM-DIIS:  cpu time   87.4327: real time   87.7473
    ORTHCH:  cpu time    2.5576: real time    2.5639
 BZINTS: Fermi energy: -0.285034;542.000000 electrons
         Band energy:***********;  BLOECHL correction: -0.134028
       DOS:  cpu time    0.1820: real time    0.1822
    --------------------------------------------
      LOOP:  cpu time  104.8921: real time  105.2368

 eigenvalue-minimisations  : 48985
 total energy-change (2. order) :-0.5452507E-04  (-0.5173604E-04)
 number of electron     541.9999983 magnetization     138.7744911
 augmentation part      541.9999983 magnetization     138.7744911

 DIPCOR: dipole corrections for dipol
 direction  3 min pos   232,
 dipolmoment           0.000000      0.000000     -0.020183 electrons x Angstroem
 Tr[quadrupol]     -9155.292402

 energy correction for charged system         0.000000 eV
 dipol+quadrupol energy correction           -0.000020 eV
 added-field ion interaction          0.463496 eV  (added to PSCEN)


 Free energy of the ion-electron system (eV)
  ---------------------------------------------------
  alpha Z        PSCENC =      1435.96423256
  Ewald energy   TEWEN  =    164945.13496738
  -Hartree energ DENC   =   -209952.23487660
  -exchange      EXHF   =         0.00000000
  -V(xc)+E(xc)   XCENC  =       674.40852455
  PAW double counting   =     51048.48362464   -52522.84472573
  entropy T*S    EENTRO =         0.00000000
  eigenvalues    EBANDS =     -1372.59473274
  atomic energy  EATOM  =     45286.38514550
  Solvation  Ediel_sol  =         0.00000000
  ---------------------------------------------------
  free energy    TOTEN  =      -457.29784043 eV

  energy without entropy =     -457.29784043  energy(sigma->0) =     -457.29784043


--------------------------------------------------------------------------------------------------------




--------------------------------------- Iteration      1(   9)  ---------------------------------------


    EDDIAG:  cpu time   14.8217: real time   14.8678
  RMM-DIIS:  cpu time   53.8048: real time   53.9186
    ORTHCH:  cpu time    2.5566: real time    2.5927
 BZINTS: Fermi energy: -0.285034;542.000000 electrons
         Band energy:***********;  BLOECHL correction: -0.134028
       DOS:  cpu time    0.1810: real time    0.1811
    --------------------------------------------
      LOOP:  cpu time   71.3642: real time   71.5602

 eigenvalue-minimisations  : 29111
 total energy-change (2. order) :-0.2394815E-04  (-0.2385411E-04)
 number of electron     541.9999983 magnetization     138.7744911
 augmentation part      541.9999983 magnetization     138.7744911

 DIPCOR: dipole corrections for dipol
 direction  3 min pos   232,
 dipolmoment           0.000000      0.000000     -0.020183 electrons x Angstroem
 Tr[quadrupol]     -9155.292402

 energy correction for charged system         0.000000 eV
 dipol+quadrupol energy correction           -0.000020 eV
 added-field ion interaction          0.463496 eV  (added to PSCEN)


 Free energy of the ion-electron system (eV)
  ---------------------------------------------------
  alpha Z        PSCENC =      1435.96423256
  Ewald energy   TEWEN  =    164945.13496738
  -Hartree energ DENC   =   -209952.23487660
  -exchange      EXHF   =         0.00000000
  -V(xc)+E(xc)   XCENC  =       674.40852455
  PAW double counting   =     51048.48362464   -52522.84472573
  entropy T*S    EENTRO =         0.00000000
  eigenvalues    EBANDS =     -1372.59475669
  atomic energy  EATOM  =     45286.38514550
  Solvation  Ediel_sol  =         0.00000000
  ---------------------------------------------------
  free energy    TOTEN  =      -457.29786438 eV

  energy without entropy =     -457.29786438  energy(sigma->0) =     -457.29786438


--------------------------------------------------------------------------------------------------------




--------------------------------------- Iteration      1(  10)  ---------------------------------------


    EDDIAG:  cpu time   14.7937: real time   14.8336
  RMM-DIIS:  cpu time   41.0728: real time   41.2536
    ORTHCH:  cpu time    2.6316: real time    2.6342
 BZINTS: Fermi energy: -0.285034;542.000000 electrons
         Band energy:***********;  BLOECHL correction: -0.134028
       DOS:  cpu time    0.1730: real time    0.1727
    --------------------------------------------
      LOOP:  cpu time   58.6711: real time   58.8941

 eigenvalue-minimisations  : 21452
 total energy-change (2. order) :-0.1751789E-05  (-0.1171377E-05)
 number of electron     541.9999983 magnetization     138.7744911
 augmentation part      541.9999983 magnetization     138.7744911

 DIPCOR: dipole corrections for dipol
 direction  3 min pos   232,
 dipolmoment           0.000000      0.000000     -0.020183 electrons x Angstroem
 Tr[quadrupol]     -9155.292402

 energy correction for charged system         0.000000 eV
 dipol+quadrupol energy correction           -0.000020 eV
 added-field ion interaction          0.463496 eV  (added to PSCEN)


 Free energy of the ion-electron system (eV)
  ---------------------------------------------------
  alpha Z        PSCENC =      1435.96423256
  Ewald energy   TEWEN  =    164945.13496738
  -Hartree energ DENC   =   -209952.23487660
  -exchange      EXHF   =         0.00000000
  -V(xc)+E(xc)   XCENC  =       674.40852455
  PAW double counting   =     51048.48362464   -52522.84472573
  entropy T*S    EENTRO =         0.00000000
  eigenvalues    EBANDS =     -1372.59475844
  atomic energy  EATOM  =     45286.38514550
  Solvation  Ediel_sol  =         0.00000000
  ---------------------------------------------------
  free energy    TOTEN  =      -457.29786613 eV

  energy without entropy =     -457.29786613  energy(sigma->0) =     -457.29786613


--------------------------------------------------------------------------------------------------------




--------------------------------------- Iteration      1(  11)  ---------------------------------------


    EDDIAG:  cpu time   14.7048: real time   14.7238
  RMM-DIIS:  cpu time   41.1867: real time   41.3067
    ORTHCH:  cpu time    2.6026: real time    2.6055
 BZINTS: Fermi energy: -0.285034;542.000000 electrons
         Band energy:***********;  BLOECHL correction: -0.134028
       DOS:  cpu time    0.1730: real time    0.1727
    --------------------------------------------
      LOOP:  cpu time   58.6671: real time   58.8086

 eigenvalue-minimisations  : 20747
 total energy-change (2. order) :-0.6872870E-06  (-0.6642329E-06)
 number of electron     541.9999983 magnetization     138.7744911
 augmentation part      541.9999983 magnetization     138.7744911

 DIPCOR: dipole corrections for dipol
 direction  3 min pos   232,
 dipolmoment           0.000000      0.000000     -0.020183 electrons x Angstroem
 Tr[quadrupol]     -9155.292402

 energy correction for charged system         0.000000 eV
 dipol+quadrupol energy correction           -0.000020 eV
 added-field ion interaction          0.463496 eV  (added to PSCEN)


 Free energy of the ion-electron system (eV)
  ---------------------------------------------------
  alpha Z        PSCENC =      1435.96423256
  Ewald energy   TEWEN  =    164945.13496738
  -Hartree energ DENC   =   -209952.23487660
  -exchange      EXHF   =         0.00000000
  -V(xc)+E(xc)   XCENC  =       674.40852455
  PAW double counting   =     51048.48362464   -52522.84472573
  entropy T*S    EENTRO =         0.00000000
  eigenvalues    EBANDS =     -1372.59475913
  atomic energy  EATOM  =     45286.38514550
  Solvation  Ediel_sol  =         0.00000000
  ---------------------------------------------------
  free energy    TOTEN  =      -457.29786682 eV

  energy without entropy =     -457.29786682  energy(sigma->0) =     -457.29786682


--------------------------------------------------------------------------------------------------------




 average (electrostatic) potential at core
  the test charge radii are     1.0103  0.9791
  (the norm of the test charge is              1.0000)
       1 -49.5299       2 -49.6012       3 -49.5699       4 -49.5123       5 -49.5963
       6 -49.5640       7 -49.3926       8 -49.4947       9 -49.4726      10 -49.4535
      11 -49.5344      12 -49.4821      13 -49.6824      14 -49.6088      15 -49.5372
      16 -49.6031      17 -49.5751      18 -49.5455      19 -49.5684      20 -49.4736
      21 -49.5575      22 -49.4289      23 -49.4623      24 -49.4946      25 -49.5073
      26 -49.5086      27 -49.5376      28 -49.4792      29 -49.4737      30 -49.4793
      31 -49.5315      32 -49.5327      33 -49.6330      34 -49.4844      35 -49.5608
      36 -49.5159      37 -49.5577      38 -49.5786      39 -49.4697      40 -49.5485
      41 -49.4921      42 -49.4975      43 -49.4376      44 -49.4776      45 -49.4409
      46 -49.4710      47 -49.4664      48 -49.5980      49 -49.4899      50 -91.6698
      51 -91.7119      52 -91.7034      53 -91.7342      54 -91.6594      55 -91.3724
      56 -91.4899      57 -91.6363      58 -91.6359      59 -91.6380      60 -91.3999
      61 -91.4807      62 -91.6127      63 -91.3953      64 -91.4623
 
 
 
 E-fermi :  -0.2850     XC(G=0):  -5.9865     alpha+bet : -5.4475


 spin component 1

 k-point     1 :       0.0000    0.0000    0.0000
  band No.  band energies     occupation 
      1      -8.4921      1.00000
      2      -7.2741      1.00000
      3      -6.6847      1.00000
      4      -6.6536      1.00000
      5      -6.5956      1.00000
      6      -6.5904      1.00000
      7      -6.5602      1.00000
      8      -6.5532      1.00000
      9      -5.8696      1.00000
     10      -5.6786      1.00000
     11      -5.6763      1.00000
     12      -5.6446      1.00000
     13      -5.6351      1.00000
     14      -5.6111      1.00000
     15      -5.5999      1.00000
     16      -5.3204      1.00000
     17      -5.1404      1.00000
     18      -5.1331      1.00000
     19      -5.0723      1.00000
     20      -5.0553      1.00000
     21      -5.0325      1.00000
     22      -4.9840      1.00000
     23      -4.7097      1.00000
     24      -4.6948      1.00000
     25      -4.6666      1.00000
     26      -4.6602      1.00000
     27      -4.6525      1.00000
     28      -4.6493      1.00000
     29      -4.6115      1.00000
     30      -4.6098      1.00000
     31      -4.5996      1.00000
     32      -4.5879      1.00000
     33      -4.5726      1.00000
     34      -4.5580      1.00000
     35      -4.5425      1.00000
     36      -4.5392      1.00000
     37      -4.5245      1.00000
     38      -4.5177      1.00000
     39      -4.5097      1.00000
     40      -4.5046      1.00000
     41      -4.4929      1.00000
     42      -4.4809      1.00000
     43      -4.4689      1.00000
     44      -4.4573      1.00000
     45      -4.4292      1.00000
     46      -4.4208      1.00000
     47      -4.4141      1.00000
     48      -4.4087      1.00000
     49      -4.4005      1.00000
     50      -4.3917      1.00000
     51      -4.3804      1.00000
     52      -4.3227      1.00000
     53      -4.3148      1.00000
     54      -4.3003      1.00000
     55      -4.2831      1.00000
     56      -4.2589      1.00000
     57      -4.2554      1.00000
     58      -4.2495      1.00000
     59      -4.2354      1.00000
     60      -4.2225      1.00000
     61      -4.1889      1.00000
     62      -4.1347      1.00000
     63      -4.1158      1.00000
     64      -4.0743      1.00000
     65      -3.9928      1.00000
     66      -3.9597      1.00000
     67      -3.9370      1.00000
     68      -3.9304      1.00000
     69      -3.9204      1.00000
     70      -3.9106      1.00000
     71      -3.9020      1.00000
     72      -3.8923      1.00000
     73      -3.8638      1.00000
     74      -3.8568      1.00000
     75      -3.8549      1.00000
     76      -3.8440      1.00000
     77      -3.8364      1.00000
     78      -3.8258      1.00000
     79      -3.8178      1.00000
     80      -3.7992      1.00000
     81      -3.7750      1.00000
     82      -3.7640      1.00000
     83      -3.6621      1.00000
     84      -3.6565      1.00000
     85      -3.6318      1.00000
     86      -3.6255      1.00000
     87      -3.6041      1.00000
     88      -3.5986      1.00000
     89      -3.5658      1.00000
     90      -3.5608      1.00000
     91      -3.5517      1.00000
     92      -3.5434      1.00000
     93      -3.5299      1.00000
     94      -3.5190      1.00000
     95      -3.5052      1.00000
     96      -3.4965      1.00000
     97      -3.4915      1.00000
     98      -3.4799      1.00000
     99      -3.4697      1.00000
    100      -3.4551      1.00000
    101      -3.4417      1.00000
    102      -3.4123      1.00000
    103      -3.4009      1.00000
    104      -3.3666      1.00000
    105      -3.3568      1.00000
    106      -3.3464      1.00000
    107      -3.3308      1.00000
    108      -3.3156      1.00000
    109      -3.2907      1.00000
    110      -3.2760      1.00000
    111      -3.2342      1.00000
    112      -3.2235      1.00000
    113      -3.2048      1.00000
    114      -3.1940      1.00000
    115      -3.1794      1.00000
    116      -3.1713      1.00000
    117      -3.1376      1.00000
    118      -3.1270      1.00000
    119      -3.1117      1.00000
    120      -3.1071      1.00000
    121      -3.0967      1.00000
    122      -3.0897      1.00000
    123      -3.0762      1.00000
    124      -3.0687      1.00000
    125      -3.0518      1.00000
    126      -3.0425      1.00000
    127      -3.0345      1.00000
    128      -3.0220      1.00000
    129      -3.0087      1.00000
    130      -2.9925      1.00000
    131      -2.9831      1.00000
    132      -2.9435      1.00000
    133      -2.9196      1.00000
    134      -2.9076      1.00000
    135      -2.8808      1.00000
    136      -2.8732      1.00000
    137      -2.8706      1.00000
    138      -2.8620      1.00000
    139      -2.8578      1.00000
    140      -2.8420      1.00000
    141      -2.8279      1.00000
    142      -2.8184      1.00000
    143      -2.8058      1.00000
    144      -2.8038      1.00000
    145      -2.7945      1.00000
    146      -2.7877      1.00000
    147      -2.7796      1.00000
    148      -2.7712      1.00000
    149      -2.7668      1.00000
    150      -2.7610      1.00000
    151      -2.7516      1.00000
    152      -2.7435      1.00000
    153      -2.7330      1.00000
    154      -2.7206      1.00000
    155      -2.7127      1.00000
    156      -2.7026      1.00000
    157      -2.6978      1.00000
    158      -2.6916      1.00000
    159      -2.6851      1.00000
    160      -2.6824      1.00000
    161      -2.6685      1.00000
    162      -2.6639      1.00000
    163      -2.6591      1.00000
    164      -2.6535      1.00000
    165      -2.6467      1.00000
    166      -2.6373      1.00000
    167      -2.6310      1.00000
    168      -2.6231      1.00000
    169      -2.6162      1.00000
    170      -2.6130      1.00000
    171      -2.6064      1.00000
    172      -2.5952      1.00000
    173      -2.5880      1.00000
    174      -2.5836      1.00000
    175      -2.5770      1.00000
    176      -2.5676      1.00000
    177      -2.5638      1.00000
    178      -2.5533      1.00000
    179      -2.5408      1.00000
    180      -2.5391      1.00000
    181      -2.5318      1.00000
    182      -2.5245      1.00000
    183      -2.5192      1.00000
    184      -2.5127      1.00000
    185      -2.5064      1.00000
    186      -2.5022      1.00000
    187      -2.4932      1.00000
    188      -2.4852      1.00000
    189      -2.4778      1.00000
    190      -2.4626      1.00000
    191      -2.4564      1.00000
    192      -2.4463      1.00000
    193      -2.4408      1.00000
    194      -2.4255      1.00000
    195      -2.4200      1.00000
    196      -2.4098      1.00000
    197      -2.4042      1.00000
    198      -2.3902      1.00000
    199      -2.3839      1.00000
    200      -2.3826      1.00000
    201      -2.3621      1.00000
    202      -2.2297      1.00000
    203      -2.1992      1.00000
    204      -2.1888      1.00000
    205      -2.1653      1.00000
    206      -2.1581      1.00000
    207      -2.1514      1.00000
    208      -2.1424      1.00000
    209      -2.1397      1.00000
    210      -2.1183      1.00000
    211      -2.1131      1.00000
    212      -2.1083      1.00000
    213      -2.1019      1.00000
    214      -2.0890      1.00000
    215      -2.0823      1.00000
    216      -2.0652      1.00000
    217      -2.0541      1.00000
    218      -2.0431      1.00000
    219      -2.0180      1.00000
    220      -2.0082      1.00000
    221      -1.9973      1.00000
    222      -1.9868      1.00000
    223      -1.9723      1.00000
    224      -1.9705      1.00000
    225      -1.9585      1.00000
    226      -1.9406      1.00000
    227      -1.9344      1.00000
    228      -1.9252      1.00000
    229      -1.9141      1.00000
    230      -1.8960      1.00000
    231      -1.8885      1.00000
    232      -1.8540      1.00000
    233      -1.8144      1.00000
    234      -1.8062      1.00000
    235      -1.7826      1.00000
    236      -1.7762      1.00000
    237      -1.7608      1.00000
    238      -1.7538      1.00000
    239      -1.7425      1.00000
    240      -1.7335      1.00000
    241      -1.7308      1.00000
    242      -1.7212      1.00000
    243      -1.7098      1.00000
    244      -1.7067      1.00000
    245      -1.6964      1.00000
    246      -1.6943      1.00000
    247      -1.6902      1.00000
    248      -1.6793      1.00000
    249      -1.6766      1.00000
    250      -1.6662      1.00000
    251      -1.6638      1.00000
    252      -1.6570      1.00000
    253      -1.6494      1.00000
    254      -1.6369      1.00000
    255      -1.6341      1.00000
    256      -1.6251      1.00000
    257      -1.6225      1.00000
    258      -1.6063      1.00000
    259      -1.6027      1.00000
    260      -1.5973      1.00000
    261      -1.5844      1.00000
    262      -1.5794      1.00000
    263      -1.5727      1.00000
    264      -1.5677      1.00000
    265      -1.5580      1.00000
    266      -1.5530      1.00000
    267      -1.5414      1.00000
    268      -1.5333      1.00000
    269      -1.5282      1.00000
    270      -1.5238      1.00000
    271      -1.5189      1.00000
    272      -1.5017      1.00000
    273      -1.4953      1.00000
    274      -1.4838      1.00000
    275      -1.4810      1.00000
    276      -1.4705      1.00000
    277      -1.4487      1.00000
    278      -1.4476      1.00000
    279      -1.4266      1.00000
    280      -1.4195      1.00000
    281      -1.4135      1.00000
    282      -1.4036      1.00000
    283      -1.3770      1.00000
    284      -1.3640      1.00000
    285      -1.3049      1.00000
    286      -1.2959      1.00000
    287      -1.2877      1.00000
    288      -1.2684      1.00000
    289      -1.2568      1.00000
    290      -1.2476      1.00000
    291      -1.2297      1.00000
    292      -1.2154      1.00000
    293      -1.2055      1.00000
    294      -1.2001      1.00000
    295      -1.1796      1.00000
    296      -1.1689      1.00000
    297      -1.1494      1.00000
    298      -1.1431      1.00000
    299      -1.0787      1.00000
    300      -1.0689      1.00000
    301      -1.0550      1.00000
    302      -1.0469      1.00000
    303      -1.0300      1.00000
    304      -1.0218      1.00000
    305      -1.0077      1.00000
    306      -0.9789      1.00000
    307      -0.9732      1.00000
    308      -0.9497      1.00000
    309      -0.9212      1.00000
    310      -0.9188      1.00000
    311      -0.9186      1.00000
    312      -0.9076      1.00000
    313      -0.8978      1.00000
    314      -0.8866      1.00000
    315      -0.8698      1.00000
    316      -0.8638      1.00000
    317      -0.8544      1.00000
    318      -0.8373      1.00000
    319      -0.8284      1.00000
    320      -0.8220      1.00000
    321      -0.7950      1.00000
    322      -0.7617      1.00000
    323      -0.7564      1.00000
    324      -0.7298      1.00000
    325      -0.7065      1.00000
    326      -0.6965      1.00000
    327      -0.6900      1.00000
    328      -0.6771      1.00000
    329      -0.6647      1.00000
    330      -0.6518      1.00000
    331      -0.6281      1.00000
    332      -0.6091      1.00000
    333      -0.5883      1.00000
    334      -0.5755      1.00000
    335      -0.5625      1.00000
    336      -0.5498      1.00000
    337      -0.4909      1.00000
    338      -0.4643      1.00000
    339      -0.4586      1.00000
    340      -0.4323      1.23495
    341      -0.3921      0.49754
    342      -0.3838      0.40814
    343      -0.2728      0.00000
    344       0.3362      0.00000
    345       0.3614      0.00000
    346       0.4008      0.00000
    347       0.9736      0.00000
    348       0.9902      0.00000
    349       1.0107      0.00000
    350       1.0272      0.00000
    351       1.0393      0.00000
    352       1.0691      0.00000
    353       1.3415      0.00000
    354       1.4193      0.00000
    355       1.4304      0.00000
    356       1.4564      0.00000
    357       1.4679      0.00000
    358       1.5109      0.00000
    359       1.5176      0.00000
    360       1.5520      0.00000
    361       1.5795      0.00000
    362       1.5938      0.00000
    363       1.6112      0.00000
    364       1.6257      0.00000
    365       1.6368      0.00000
    366       1.6750      0.00000
    367       1.6804      0.00000
    368       2.2328      0.00000
    369       2.2800      0.00000
    370       2.3472      0.00000
    371       2.3556      0.00000
    372       2.4333      0.00000
    373       2.4445      0.00000
    374       2.8417      0.00000
    375       2.8625      0.00000
    376       2.8817      0.00000
    377       2.8929      0.00000
    378       2.9271      0.00000
    379       2.9551      0.00000
    380       3.2287      0.00000
    381       3.2462      0.00000
    382       3.2929      0.00000
    383       3.3343      0.00000
    384       3.3871      0.00000
    385       3.4033      0.00000
    386       4.2266      0.00000
    387       4.3033      0.00000
    388       4.8854      0.00000
    389       4.9110      0.00000
    390       4.9335      0.00000
    391       4.9761      0.00000
    392       4.9804      0.00000
    393       4.9897      0.00000
    394       5.6448      0.00000
    395       5.8827      0.00000
    396       5.9453      0.00000
    397       5.9536      0.00000
    398       5.9792      0.00000
    399       5.9921      0.00000
    400       6.0088      0.00000
[...]
   -.344E+02 -.632E+02 -.702E+03   0.349E+02 0.638E+02 0.702E+03   -.342E+00 -.490E+00 0.155E+00   -.150E+00 -.185E+00 -.559E-01
   -.185E+02 -.364E+02 -.701E+03   0.185E+02 0.367E+02 0.701E+03   0.621E-01 -.121E+00 0.648E-01   -.938E-02 -.160E+00 -.135E+00
   -.233E+02 0.551E+01 0.207E+04   0.237E+02 -.550E+01 -.206E+04   -.896E+00 0.242E-01 -.224E+01   -.117E+00 0.119E+00 -.919E+00
   -.393E+02 0.121E+01 -.201E+04   0.400E+02 -.107E+01 0.201E+04   -.591E+00 0.464E-01 0.258E+01   -.132E+00 -.190E+00 0.825E+00
   0.171E+02 -.882E+02 -.727E+03   -.172E+02 0.891E+02 0.727E+03   -.763E-01 -.538E+00 0.208E+00   0.173E+00 -.402E+00 0.213E+00
   -.146E+01 0.117E+02 0.202E+04   0.140E+01 -.116E+02 -.201E+04   0.114E+00 -.297E+00 -.206E+01   -.230E+00 0.372E-01 -.103E+01
   0.189E+02 -.110E+02 -.203E+04   -.192E+02 0.116E+02 0.203E+04   0.684E-02 -.812E-01 0.203E+01   0.292E+00 -.445E+00 0.733E+00
   -.457E+01 -.346E+02 0.705E+03   0.408E+01 0.350E+02 -.704E+03   -.588E+00 0.488E+00 -.866E-01   -.154E+00 0.111E+00 -.412E+00
   0.190E+02 -.250E+02 0.205E+04   -.192E+02 0.253E+02 -.204E+04   0.815E+00 0.128E+00 -.238E+01   0.121E+00 -.247E+00 -.966E+00
   0.320E+02 -.310E+02 -.208E+04   -.327E+02 0.316E+02 0.208E+04   0.568E+00 -.322E-01 0.286E+01   0.136E+00 -.522E+00 0.589E+00
   0.118E+02 -.464E+02 0.730E+03   -.114E+02 0.467E+02 -.730E+03   0.609E+00 -.281E+00 0.657E+00   0.114E+00 -.145E+00 -.139E+00
   0.212E+02 0.343E+02 -.726E+03   -.215E+02 -.343E+02 0.725E+03   0.313E+00 -.379E-01 0.617E-01   0.530E-01 -.380E-01 0.246E+00
   0.157E+02 0.286E+02 -.730E+03   -.156E+02 -.289E+02 0.730E+03   -.290E+00 0.282E+00 0.425E-01   0.108E+00 0.614E-01 0.164E+00
   0.221E+02 -.308E+01 0.203E+04   -.225E+02 0.348E+01 -.202E+04   0.104E+00 -.685E+00 -.253E+01   0.325E+00 -.222E+00 -.108E+01
   0.163E+02 -.240E+02 -.205E+04   -.167E+02 0.249E+02 0.205E+04   0.285E+00 -.634E+00 0.312E+01   0.790E-01 -.227E+00 0.678E+00
   -.204E+02 0.326E+02 -.711E+03   0.206E+02 -.330E+02 0.711E+03   -.110E+00 0.789E-01 0.610E-01   -.934E-01 0.269E+00 -.303E-01
   0.113E+02 -.128E+02 0.205E+04   -.114E+02 0.131E+02 -.205E+04   0.110E+00 0.334E+00 -.245E+01   0.225E+00 -.293E+00 -.883E+00
   -.289E+01 0.137E+02 -.203E+04   0.311E+01 -.136E+02 0.202E+04   -.743E-01 -.132E+00 0.298E+01   -.120E+00 0.797E-01 0.720E+00
   0.201E+02 -.371E+02 0.637E+03   -.203E+02 0.375E+02 -.636E+03   0.450E+00 -.680E+00 -.639E+00   0.279E+00 -.280E+00 -.434E+00
   -.143E+02 0.483E+02 -.721E+03   0.142E+02 -.486E+02 0.720E+03   0.137E+00 0.763E-01 0.727E+00   -.397E-01 0.187E+00 -.169E-01
   -.203E+02 0.134E+02 0.203E+04   0.205E+02 -.135E+02 -.203E+04   -.308E-01 0.905E+00 -.239E+01   -.287E+00 -.212E+00 -.912E+00
   -.118E+02 0.646E+02 -.202E+04   0.118E+02 -.654E+02 0.202E+04   0.132E+00 0.686E+00 0.278E+01   -.117E+00 0.146E+00 0.752E+00
   -.141E+02 0.258E+01 0.201E+04   0.146E+02 -.255E+01 -.201E+04   -.142E+00 0.533E+00 -.235E+01   -.262E+00 -.222E+00 -.111E+01
   -.347E+00 0.137E+02 -.204E+04   0.590E+00 -.140E+02 0.204E+04   -.373E+00 0.455E+00 0.302E+01   0.150E+00 -.172E+00 0.672E+00
   -.138E+02 -.954E+01 0.647E+03   0.140E+02 0.974E+01 -.646E+03   -.443E+00 -.119E-01 -.106E+00   -.289E+00 -.126E+00 -.401E+00
   0.272E+02 -.228E+02 0.641E+03   -.274E+02 0.228E+02 -.640E+03   0.165E+00 -.321E+00 -.595E-01   0.107E+00 -.381E+00 -.206E+00
   -.552E+01 0.241E+02 0.202E+04   0.573E+01 -.240E+02 -.202E+04   -.714E+00 -.394E+00 -.225E+01   -.846E-01 0.186E+00 -.104E+01
   -.121E+02 -.242E+01 -.201E+04   0.125E+02 0.223E+01 0.200E+04   -.480E+00 0.553E-01 0.204E+01   0.119E+00 0.147E+00 0.678E+00
   0.695E+01 0.203E+00 0.204E+04   -.736E+01 -.308E+00 -.204E+04   0.918E+00 -.118E+00 -.234E+01   0.154E+00 -.126E+00 -.996E+00
   0.335E+02 -.262E+01 -.204E+04   -.341E+02 0.208E+01 0.203E+04   0.431E+00 0.272E+00 0.257E+01   0.219E+00 0.262E+00 0.634E+00
   0.170E+02 0.190E+02 0.692E+03   -.169E+02 -.189E+02 -.691E+03   0.399E+00 0.330E+00 0.372E+00   0.215E+00 0.645E-01 -.210E+00
   -.251E+02 0.436E+02 0.606E+03   0.253E+02 -.439E+02 -.605E+03   -.338E+00 0.241E+00 -.947E+00   -.206E+00 0.156E+00 -.327E+00
   -.580E+01 0.408E+02 0.629E+03   0.604E+01 -.409E+02 -.629E+03   -.694E+00 0.558E+00 -.695E+00   -.277E+00 0.273E+00 -.173E+00
   0.263E+02 0.538E+02 -.827E+03   -.265E+02 -.544E+02 0.827E+03   0.924E-01 0.329E+00 0.287E+00   0.164E+00 0.248E+00 0.219E+00
   -.504E+02 0.211E+01 -.851E+03   0.511E+02 -.227E+01 0.851E+03   -.306E+00 0.272E+00 0.151E+00   -.381E+00 -.127E+00 -.194E-01
   0.351E+02 -.570E+02 -.861E+03   -.357E+02 0.573E+02 0.861E+03   0.282E+00 -.181E+00 0.187E+00   0.377E+00 -.156E+00 0.225E+00
   0.478E+02 -.245E+02 -.840E+03   -.480E+02 0.244E+02 0.839E+03   0.167E-01 0.178E+00 0.244E+00   0.176E+00 -.162E+00 0.373E+00
   -.260E+02 0.650E+02 0.870E+03   0.263E+02 -.653E+02 -.869E+03   0.145E+00 0.368E+00 -.500E+00   -.232E+00 0.393E+00 -.257E+00
   0.618E+01 -.170E+02 0.256E+04   -.637E+01 0.171E+02 -.256E+04   -.239E-01 -.153E+00 -.333E+00   0.222E+00 -.136E+00 -.116E+01
   -.240E+02 -.385E+02 -.251E+04   0.244E+02 0.388E+02 0.251E+04   0.530E-01 -.489E-01 -.207E+00   -.380E+00 -.248E+00 0.836E+00
   -.607E+02 -.219E+02 0.875E+03   0.611E+02 0.219E+02 -.875E+03   -.487E+00 -.938E-01 -.418E+00   -.144E+00 -.220E-01 -.547E+00
   0.521E+02 -.637E+02 0.896E+03   -.525E+02 0.642E+02 -.896E+03   0.351E+00 -.278E+00 -.166E+00   0.204E+00 -.427E+00 -.285E+00
   -.409E+02 -.288E+01 0.827E+03   0.410E+02 0.295E+01 -.826E+03   -.209E+00 -.159E+00 -.362E+00   -.137E+00 -.136E+00 -.808E+00
   0.249E+02 0.167E+02 0.254E+04   -.252E+02 -.167E+02 -.254E+04   0.149E+00 -.167E+00 -.100E+01   0.220E+00 -.476E-01 -.109E+01
   0.419E+02 0.238E+02 -.251E+04   -.422E+02 -.244E+02 0.251E+04   0.404E+00 -.458E-01 0.658E+00   -.105E+00 0.626E+00 0.772E+00
   0.217E+02 0.135E+02 0.820E+03   -.221E+02 -.135E+02 -.819E+03   0.433E+00 -.119E+00 -.678E+00   0.338E+00 -.515E-01 -.385E+00
   -.310E+02 0.368E+02 0.253E+04   0.315E+02 -.371E+02 -.253E+04   -.387E+00 0.102E+00 -.812E+00   -.321E+00 0.243E+00 -.107E+01
   -.583E+02 0.308E+02 -.251E+04   0.589E+02 -.312E+02 0.251E+04   -.222E+00 -.119E+00 0.105E+01   -.314E+00 0.535E+00 0.778E+00
 -----------------------------------------------------------------------------------------------
   0.180E+00 -.555E+00 0.681E+01   0.199E-12 -.565E-12 -.182E-11   -.126E+00 0.394E+00 0.992E+00   -.548E-01 0.155E+00 -.776E+01
 
 
 POSITION                                       TOTAL-FORCE (eV/Angst)
 -----------------------------------------------------------------------------------
     -5.00993      8.73708      6.16430         0.006756     -0.001923      0.012266
      5.07377      0.01080      6.19664         0.016131      0.007063      0.007148
      2.57765      8.72538      6.23541        -0.001299     -0.024182      0.011005
      1.29858      2.14258      6.14423         0.020218      0.012440      0.036263
      0.08074      1.41419      2.02548        -0.786464      0.200837      0.172677
      0.02671      1.46261      8.21619         0.024640      0.001690     -0.021872
      2.49330      1.45451      2.12057         0.216364      0.149409     -1.056635
      2.55696      1.44640      8.21197         0.015477     -0.014863     -0.018077
      1.28611      0.70882      4.08611        -0.476663      0.096873      0.553421
      5.06166      1.44930      2.10726        -0.029451     -0.071650     -0.846964
      5.11492      1.54953      8.23552         0.033961     -0.005772      0.013213
      3.82589      0.76557      4.08268         0.076001     -0.833154      0.952384
      7.51557      1.45812      2.08229         0.576090     -0.079291      0.000180
      7.61282      1.47852      8.21591        -0.002117      0.000500     -0.004199
      6.32723      0.72925      4.12657         0.063931     -0.191023      0.177201
      7.57055      4.28735      6.26760         0.009592     -0.002015     -0.034974
      0.00046      4.33590      6.18687         0.002930      0.006370     -0.003972
      2.52927      4.34501      6.19267        -0.020508     -0.007758      0.012366
      1.32139      3.64145      2.00000        -0.578224      0.159353      0.292884
      1.27444      3.67458      8.28849         0.014120      0.002331     -0.010388
      5.06486      4.28483      6.27776         0.001680     -0.004324      0.003573
      3.79377      3.69800      2.10298        -0.178163     -0.190174     -0.986099
      3.76746      3.71166      8.32719         0.002443      0.049424     -0.026112
      2.59838      2.86105      4.09767        -1.231911      0.957518      0.390099
      6.25293      3.64956      2.05533         0.721984      0.131065     -0.216926
      6.33931      3.66236      8.41171         0.025072      0.013861     -0.009176
      5.00304      2.93728      4.06641         1.165540     -0.149375      1.231993
     -3.73297      6.52368      6.27629         0.040262      0.007296     -0.002697
     -1.26692      6.55366      6.25429         0.006864      0.009255     -0.001675
     -2.52172      5.87475      2.05974        -0.042249     -0.508327     -0.578513
     -2.45644      5.83372      8.42836         0.034907      0.026797     -0.023464
      1.24937      6.54473      6.22673        -0.012496      0.000700     -0.011627
     -0.00626      5.79145      2.01686         0.166301      0.332042      0.401133
      0.03351      5.87230      8.35539         0.030794      0.029163     -0.020924
     -1.31907      5.15820      4.16840         0.556843     -0.532901     -0.224329
      3.85499      6.50439      6.30389         0.010758     -0.017216      0.012012
      2.52387      5.78801      2.04538        -0.091605      0.562092     -0.118751
      2.51928      5.91945      8.37193        -0.029520     -0.021935     -0.049295
      5.06734      5.79704      2.07745         0.057969      0.346886     -0.535429
      5.11678      5.83281      8.43035         0.020818      0.010874     -0.071073
      3.83733      5.12538      4.11627        -0.586458      0.069328      0.712897
      6.32391      5.14322      4.15339         0.087338     -0.781380      0.296831
     -3.76296      8.02446      2.09184        -0.592406     -0.126747     -0.760292
     -3.71768      7.98937      8.25572         0.033765      0.011373     -0.012529
     -1.33707      8.05044      2.07535         0.657077     -0.349086     -0.221765
     -1.17754      8.03749      8.29895         0.000898     -0.003406     -0.006311
     -2.55850      7.28170      4.08151         0.647162      0.482985      1.063447
      2.56196      7.27552      4.18795        -0.385618      0.113608     -0.498944
      5.10630      7.24251      4.15663        -0.737270      0.744858     -0.136618
     -2.47901      8.74287      6.15511         0.014902      0.021217      0.025153
      8.85462      2.15680      6.14957         0.014129     -0.014532      0.039052
      3.82202      2.16003      6.19064         0.014361     -0.006137      0.023685
      6.33569      2.16704      6.16729         0.009417     -0.022674      0.042736
      8.84357      0.69437      4.13082         0.229443      0.401235     -0.301363
     -1.27338      3.65234      2.06082         0.004460     -0.156517      0.500778
     -1.22957      3.63970      8.22278         0.012091      0.021831     -0.031615
      0.03628      2.92806      4.13239        -0.165007     -0.125826     -0.405212
      7.55782      2.94639      4.12218         0.194021     -0.164019     -0.146405
      1.28295      5.12031      4.13910        -0.176663     -0.233861     -0.222225
      1.25660      8.01495      2.06421         0.077417     -0.222924      0.418560
      1.31300      8.08546      8.26333         0.014009      0.001971     -0.027379
     -0.02502      7.30581      4.14419         0.339151     -0.123767     -0.277401
      3.80919      8.00883      2.06403        -0.152743      0.005146      0.519436
      3.84020      8.05374      8.27375         0.008749     -0.000632     -0.001164
 -----------------------------------------------------------------------------------
    total drift:                               -0.000678     -0.006506      0.043703


--------------------------------------------------------------------------------------------------------



  FREE ENERGIE OF THE ION-ELECTRON SYSTEM (eV)
  ---------------------------------------------------
  free  energy   TOTEN  =      -457.29786682 eV

  energy  without entropy=     -457.29786682  energy(sigma->0) =     -457.29786682
 


--------------------------------------------------------------------------------------------------------


    POTLOK:  cpu time    0.2840: real time    0.3064


--------------------------------------------------------------------------------------------------------


     LOOP+:  cpu time 1086.5158: real time 1091.5398
    4ORBIT:  cpu time    0.0000: real time    0.0000
 


 total charge     
 
# of ion       s       p       d       tot
------------------------------------------
    1        0.474   0.501   6.212   7.186
    2        0.472   0.500   6.201   7.173
    3        0.474   0.499   6.213   7.186
    4        0.478   0.507   6.219   7.204
    5        0.470   0.374   6.162   7.006
    6        0.472   0.392   6.178   7.042
    7        0.503   0.448   6.242   7.194
    8        0.472   0.395   6.176   7.043
    9        0.492   0.531   6.247   7.270
   10        0.492   0.420   6.218   7.130
   11        0.475   0.399   6.179   7.053
   12        0.494   0.538   6.256   7.288
   13        0.468   0.375   6.138   6.982
   14        0.472   0.397   6.164   7.033
   15        0.475   0.501   6.219   7.195
   16        0.474   0.499   6.202   7.175
   17        0.474   0.496   6.206   7.175
   18        0.473   0.500   6.205   7.177
   19        0.472   0.389   6.164   7.025
   20        0.474   0.392   6.183   7.049
   21        0.473   0.504   6.199   7.176
   22        0.503   0.450   6.229   7.182
   23        0.474   0.394   6.186   7.054
   24        0.491   0.528   6.250   7.270
   25        0.479   0.403   6.192   7.075
   26        0.474   0.382   6.179   7.035
   27        0.492   0.535   6.249   7.276
   28        0.477   0.508   6.224   7.210
   29        0.474   0.504   6.219   7.198
   30        0.486   0.408   6.197   7.090
   31        0.473   0.386   6.174   7.033
   32        0.470   0.493   6.210   7.173
   33        0.463   0.366   6.138   6.967
   34        0.474   0.385   6.190   7.049
   35        0.470   0.489   6.207   7.165
   36        0.472   0.499   6.206   7.177
   37        0.477   0.393   6.168   7.038
   38        0.471   0.385   6.169   7.025
   39        0.488   0.415   6.210   7.113
   40        0.472   0.382   6.174   7.028
   41        0.489   0.533   6.238   7.260
   42        0.489   0.532   6.245   7.267
   43        0.497   0.438   6.223   7.158
   44        0.473   0.397   6.187   7.058
   45        0.482   0.407   6.213   7.101
   46        0.471   0.391   6.183   7.046
   47        0.494   0.541   6.258   7.293
   48        0.464   0.480   6.196   7.140
   49        0.488   0.524   6.249   7.261
   50        0.514   0.524   8.318   9.355
   51        0.507   0.508   8.318   9.332
   52        0.518   0.530   8.324   9.371
   53        0.515   0.524   8.313   9.352
   54        0.498   0.491   8.305   9.293
   55        0.494   0.366   8.306   9.165
   56        0.520   0.414   8.318   9.253
   57        0.489   0.472   8.303   9.263
   58        0.496   0.485   8.313   9.294
   59        0.500   0.499   8.305   9.304
   60        0.496   0.372   8.309   9.177
   61        0.515   0.413   8.312   9.240
   62        0.500   0.497   8.315   9.312
   63        0.493   0.371   8.310   9.173
   64        0.513   0.401   8.317   9.231
--------------------------------------------------
tot         31.020  28.967 428.632 488.619
 


 magnetization (x)
 
# of ion       s       p       d       tot
------------------------------------------
    1       -0.011  -0.036   2.610   2.563
    2       -0.009  -0.033   2.656   2.614
    3       -0.010  -0.029   2.612   2.573
    4       -0.013  -0.041   2.589   2.535
    5        0.002  -0.003   2.775   2.774
    6       -0.001  -0.014   2.737   2.721
    7       -0.015  -0.029   2.569   2.525
    8       -0.006  -0.022   2.713   2.684
    9       -0.016  -0.044   2.522   2.462
   10       -0.011  -0.017   2.641   2.613
   11       -0.003  -0.017   2.708   2.688
   12       -0.017  -0.046   2.525   2.462
   13        0.005  -0.003   2.825   2.826
   14        0.004  -0.009   2.749   2.744
   15       -0.010  -0.032   2.592   2.549
   16       -0.012  -0.036   2.655   2.607
   17       -0.012  -0.034   2.636   2.589
   18       -0.015  -0.047   2.646   2.583
   19       -0.000  -0.014   2.759   2.746
   20       -0.008  -0.022   2.698   2.668
   21       -0.016  -0.050   2.654   2.588
   22       -0.014  -0.033   2.603   2.556
   23       -0.009  -0.025   2.692   2.658
   24       -0.015  -0.040   2.543   2.487
   25       -0.005  -0.017   2.707   2.685
   26       -0.005  -0.014   2.717   2.698
   27       -0.015  -0.042   2.568   2.511
   28       -0.017  -0.052   2.592   2.522
   29       -0.017  -0.051   2.589   2.521
   30       -0.009  -0.018   2.682   2.655
   31       -0.004  -0.018   2.737   2.716
   32       -0.013  -0.040   2.629   2.575
   33        0.002  -0.004   2.814   2.812
   34       -0.003  -0.011   2.691   2.677
   35       -0.009  -0.031   2.636   2.596
   36       -0.017  -0.048   2.624   2.558
   37       -0.003  -0.015   2.747   2.729
   38       -0.004  -0.018   2.762   2.740
   39       -0.009  -0.018   2.666   2.639
   40       -0.005  -0.016   2.750   2.729
   41       -0.019  -0.053   2.556   2.484
   42       -0.019  -0.052   2.557   2.486
   43       -0.010  -0.027   2.612   2.576
   44       -0.006  -0.021   2.689   2.663
   45       -0.007  -0.016   2.653   2.630
   46       -0.004  -0.020   2.694   2.670
   47       -0.018  -0.049   2.516   2.449
   48       -0.007  -0.027   2.671   2.636
   49       -0.017  -0.042   2.538   2.479
   50       -0.035  -0.071   0.747   0.641
   51       -0.027  -0.052   0.743   0.665
   52       -0.033  -0.067   0.743   0.643
   53       -0.032  -0.065   0.764   0.667
   54       -0.028  -0.055   0.752   0.669
   55       -0.032  -0.032   0.709   0.644
   56       -0.035  -0.040   0.708   0.633
   57       -0.025  -0.047   0.758   0.686
   58       -0.027  -0.049   0.735   0.660
   59       -0.033  -0.068   0.758   0.657
   60       -0.030  -0.032   0.723   0.662
   61       -0.033  -0.045   0.728   0.650
   62       -0.032  -0.060   0.730   0.637
   63       -0.031  -0.033   0.733   0.669
   64       -0.034  -0.038   0.721   0.648
--------------------------------------------------
tot         -0.920  -2.155 141.158 138.083
 
 BZINTS: Fermi energy: -0.285034;542.000000 electrons
         Band energy:***********;  BLOECHL correction: -0.134028

 total amount of memory used by VASP MPI-rank0   255441. kBytes
=======================================================================

   base      :      30000. kBytes
   nonlr-proj:      13178. kBytes
   fftplans  :       6403. kBytes
   grid      :      16455. kBytes
   one-center:         93. kBytes
   wavefun   :     189312. kBytes
 
  
  
 General timing and accounting informations for this job:
 ========================================================
  
                  Total CPU time used (sec):     1199.303
                            User time (sec):     1182.094
                          System time (sec):       17.208
                         Elapsed time (sec):     1213.508
  
                   Maximum memory used (kb):      356844.
                   Average memory used (kb):           0.
  
                          Minor page faults:        37714
                          Major page faults:            0
                 Voluntary context switches:         8006
