SQS-NiFe                                
           1
    10.111630    0.000000    0.000000
    -5.055815    8.756928    0.000000
     0.000000    0.000000   21.312646
   Fe   Ni
  49  15
Direct configuration=     1
   0.00340430  0.99773305  0.28923196
   0.50239265  0.00123354  0.29074954
   0.75311832  0.99639765  0.29256869
   0.25076130  0.24467305  0.28829019
   0.08873200  0.16149400  0.09503655
   0.08615331  0.16702288  0.38550796
   0.32962600  0.16609800  0.09949802
   0.33545941  0.16517202  0.38530955
   0.16766300  0.08094400  0.19172241
   0.58333000  0.16550300  0.09887366
   0.59431980  0.17694901  0.38641453
   0.42207800  0.08742500  0.19156116
   0.82651500  0.16651000  0.09770193
   0.83729758  0.16884002  0.38549457
   0.66737600  0.08327700  0.19362076
   0.99349478  0.48959519  0.29407877
   0.24761552  0.49513932  0.29029108
   0.49822415  0.49617940  0.29056308
   0.33859900  0.41583700  0.09384100
   0.33584686  0.41961968  0.38890013
   0.74554759  0.48930710  0.29455543
   0.58633600  0.42229400  0.09867290
   0.58451431  0.42385460  0.39071589
   0.42032800  0.32671800  0.19226484
   0.82677100  0.41676200  0.09643693
   0.83604497  0.41822473  0.39468158
   0.66249300  0.33542400  0.19079821
   0.00331089  0.74497340  0.29448649
   0.24890519  0.74839727  0.29345453
   0.08604600  0.67086900  0.09664380
   0.09015984  0.66618376  0.39546284
   0.49724640  0.74737736  0.29216122
   0.33005900  0.66135600  0.09463213
   0.33860835  0.67058936  0.39203908
   0.16407000  0.58904200  0.19558362
   0.75262818  0.74277054  0.29578158
   0.58008200  0.66096300  0.09597033
   0.58713338  0.67597371  0.39281505
   0.83213700  0.66199500  0.09747502
   0.83906896  0.66607964  0.39555605
   0.67214400  0.58529400  0.19313760
   0.91907500  0.58733100  0.19487907
   0.08603600  0.91635500  0.09815022
   0.08851054  0.91234865  0.38736246
   0.32743000  0.91932200  0.09737653
   0.34246768  0.91784385  0.38939102
   0.16274300  0.83153600  0.19150654
   0.66878300  0.83083000  0.19650084
   0.91852300  0.82706000  0.19503131
   0.25403259  0.99839408  0.28880085
   0.99883528  0.24629654  0.28854110
   0.50131526  0.24666551  0.29046790
   0.75030742  0.24746567  0.28937217
   0.91424100  0.07929400  0.19382007
   0.08260800  0.41708000  0.09669464
   0.08621856  0.41563669  0.38581683
   0.17077300  0.33437100  0.19389387
   0.91567000  0.33646400  0.19341477
   0.41923600  0.58471500  0.19420852
   0.58190700  0.91526900  0.09685385
   0.59151139  0.92332142  0.38771966
   0.41467000  0.83428900  0.19444763
   0.83399900  0.91457100  0.09684514
   0.83962988  0.91969935  0.38820830
