  69  69   1   0
  0.2631499E+02  0.9967380E-09  0.9967380E-09  0.2110375E-08  0.1500000E-16
  1.000000000000000E-004
  CAR 
 SQS-NiFe                                
      7.23788061    -20.99147914  301      0.44539093      1.00000000
    -20.991  0.0000E+00  0.0000E+00
    -20.897  0.0000E+00  0.0000E+00
    -20.803  0.0000E+00  0.0000E+00
    -20.709  0.0000E+00  0.0000E+00
    -20.615  0.0000E+00  0.0000E+00
    -20.521  0.0000E+00  0.0000E+00
    -20.427  0.0000E+00  0.0000E+00
    -20.333  0.0000E+00  0.0000E+00
    -20.239  0.0000E+00  0.0000E+00
    -20.145  0.4092E-17  0.3850E-18
    -20.051  0.8525E-15  0.8060E-16
    -19.956  0.1087E-12  0.1030E-13
    -19.862  0.8960E-11  0.8535E-12
    -19.768  0.4784E-09  0.4587E-10
    -19.674  0.1655E-07  0.1603E-08
    -19.580  0.3714E-06  0.3655E-07
    -19.486  0.5415E-05  0.5460E-06
    -19.392  0.5137E-04  0.5380E-05
    -19.298  0.3183E-03  0.3533E-04
    -19.204  0.1300E-02  0.1576E-03
    -19.110  0.3581E-02  0.4946E-03
    -19.015  0.7113E-02  0.1164E-02
    -18.921  0.1163E-01  0.2259E-02
    -18.827  0.1771E-01  0.3925E-02
    -18.733  0.2393E-01  0.6177E-02
    -18.639  0.2504E-01  0.8533E-02
    -18.545  0.1859E-01  0.1028E-01
    -18.451  0.9455E-02  0.1117E-01
    -18.357  0.3252E-02  0.1148E-01
    -18.263  0.7505E-03  0.1155E-01
    -18.169  0.1155E-03  0.1156E-01
    -18.074  0.1179E-04  0.1156E-01
    -17.980  0.7935E-06  0.1156E-01
    -17.886  0.3509E-07  0.1156E-01
    -17.792  0.1016E-08  0.1156E-01
    -17.698  0.1918E-10  0.1156E-01
    -17.604  0.2357E-12  0.1156E-01
    -17.510  0.1885E-14  0.1156E-01
    -17.416  0.8184E-17  0.1156E-01
    -17.322  0.0000E+00  0.1156E-01
    -17.228  0.0000E+00  0.1156E-01
    -17.133  0.0000E+00  0.1156E-01
    -17.039  0.0000E+00  0.1156E-01
    -16.945  0.0000E+00  0.1156E-01
    -16.851  0.0000E+00  0.1156E-01
    -16.757  0.0000E+00  0.1156E-01
    -16.663  0.0000E+00  0.1156E-01
    -16.569  0.0000E+00  0.1156E-01
    -16.475  0.0000E+00  0.1156E-01
    -16.381  0.0000E+00  0.1156E-01
    -16.287  0.0000E+00  0.1156E-01
    -16.192  0.0000E+00  0.1156E-01
    -16.098  0.0000E+00  0.1156E-01
    -16.004  0.0000E+00  0.1156E-01
    -15.910  0.0000E+00  0.1156E-01
    -15.816  0.0000E+00  0.1156E-01
    -15.722  0.0000E+00  0.1156E-01
    -15.628  0.0000E+00  0.1156E-01
    -15.534  0.0000E+00  0.1156E-01
    -15.440  0.0000E+00  0.1156E-01
    -15.346  0.0000E+00  0.1156E-01
    -15.252  0.0000E+00  0.1156E-01
    -15.157  0.0000E+00  0.1156E-01
    -15.063  0.0000E+00  0.1156E-01
    -14.969  0.0000E+00  0.1156E-01
    -14.875  0.0000E+00  0.1156E-01
    -14.781  0.0000E+00  0.1156E-01
    -14.687  0.0000E+00  0.1156E-01
    -14.593  0.0000E+00  0.1156E-01
    -14.499  0.0000E+00  0.1156E-01
    -14.405  0.0000E+00  0.1156E-01
    -14.311  0.0000E+00  0.1156E-01
    -14.216  0.0000E+00  0.1156E-01
    -14.122  0.0000E+00  0.1156E-01
    -14.028  0.0000E+00  0.1156E-01
    -13.934  0.0000E+00  0.1156E-01
    -13.840  0.0000E+00  0.1156E-01
    -13.746  0.0000E+00  0.1156E-01
    -13.652  0.0000E+00  0.1156E-01
    -13.558  0.0000E+00  0.1156E-01
    -13.464  0.0000E+00  0.1156E-01
    -13.370  0.0000E+00  0.1156E-01
    -13.275  0.0000E+00  0.1156E-01
    -13.181  0.0000E+00  0.1156E-01
    -13.087  0.0000E+00  0.1156E-01
    -12.993  0.0000E+00  0.1156E-01
    -12.899  0.0000E+00  0.1156E-01
    -12.805  0.0000E+00  0.1156E-01
    -12.711  0.0000E+00  0.1156E-01
    -12.617  0.0000E+00  0.1156E-01
    -12.523  0.0000E+00  0.1156E-01
    -12.429  0.0000E+00  0.1156E-01
    -12.334  0.0000E+00  0.1156E-01
    -12.240  0.0000E+00  0.1156E-01
    -12.146  0.0000E+00  0.1156E-01
    -12.052  0.0000E+00  0.1156E-01
    -11.958  0.0000E+00  0.1156E-01
    -11.864  0.0000E+00  0.1156E-01
    -11.770  0.0000E+00  0.1156E-01
    -11.676  0.0000E+00  0.1156E-01
    -11.582  0.0000E+00  0.1156E-01
    -11.488  0.0000E+00  0.1156E-01
    -11.393  0.0000E+00  0.1156E-01
    -11.299  0.0000E+00  0.1156E-01
    -11.205  0.0000E+00  0.1156E-01
    -11.111  0.0000E+00  0.1156E-01
    -11.017  0.0000E+00  0.1156E-01
    -10.923  0.0000E+00  0.1156E-01
    -10.829  0.0000E+00  0.1156E-01
    -10.735  0.0000E+00  0.1156E-01
    -10.641  0.0000E+00  0.1156E-01
    -10.547  0.0000E+00  0.1156E-01
    -10.453  0.0000E+00  0.1156E-01
    -10.358  0.0000E+00  0.1156E-01
    -10.264  0.0000E+00  0.1156E-01
    -10.170  0.0000E+00  0.1156E-01
    -10.076  0.0000E+00  0.1156E-01
     -9.982  0.0000E+00  0.1156E-01
     -9.888  0.0000E+00  0.1156E-01
     -9.794  0.0000E+00  0.1156E-01
     -9.700  0.0000E+00  0.1156E-01
     -9.606  0.0000E+00  0.1156E-01
     -9.512  0.0000E+00  0.1156E-01
     -9.417  0.0000E+00  0.1156E-01
     -9.323  0.0000E+00  0.1156E-01
     -9.229  0.0000E+00  0.1156E-01
     -9.135  0.6002E-16  0.1156E-01
     -9.041  0.9521E-14  0.1156E-01
     -8.947  0.9819E-12  0.1156E-01
     -8.853  0.6552E-10  0.1156E-01
     -8.759  0.2832E-08  0.1156E-01
     -8.665  0.7935E-07  0.1156E-01
     -8.571  0.1443E-05  0.1156E-01
     -8.476  0.1705E-04  0.1156E-01
     -8.382  0.1310E-03  0.1157E-01
     -8.288  0.6554E-03  0.1164E-01
     -8.194  0.2137E-02  0.1184E-01
     -8.100  0.4545E-02  0.1227E-01
     -8.006  0.6307E-02  0.1286E-01
     -7.912  0.5712E-02  0.1340E-01
     -7.818  0.3377E-02  0.1371E-01
     -7.724  0.1302E-02  0.1384E-01
     -7.630  0.3274E-03  0.1387E-01
     -7.535  0.5362E-04  0.1387E-01
     -7.441  0.5716E-05  0.1387E-01
     -7.347  0.4012E-06  0.1387E-01
     -7.253  0.1509E-06  0.1387E-01
     -7.159  0.2251E-05  0.1387E-01
     -7.065  0.2473E-04  0.1388E-01
     -6.971  0.1768E-03  0.1389E-01
     -6.877  0.8236E-03  0.1397E-01
     -6.783  0.2503E-02  0.1421E-01
     -6.689  0.4996E-02  0.1468E-01
     -6.595  0.6775E-02  0.1531E-01
     -6.500  0.7422E-02  0.1601E-01
     -6.406  0.1024E-01  0.1697E-01
     -6.312  0.1887E-01  0.1875E-01
     -6.218  0.3042E-01  0.2161E-01
     -6.124  0.3563E-01  0.2496E-01
     -6.030  0.2922E-01  0.2771E-01
     -5.936  0.1673E-01  0.2929E-01
     -5.842  0.7554E-02  0.3000E-01
     -5.748  0.6477E-02  0.3061E-01
     -5.654  0.1398E-01  0.3192E-01
     -5.559  0.2688E-01  0.3445E-01
     -5.465  0.3682E-01  0.3792E-01
     -5.371  0.3747E-01  0.4144E-01
     -5.277  0.3427E-01  0.4467E-01
     -5.183  0.3649E-01  0.4810E-01
     -5.089  0.4215E-01  0.5207E-01
     -4.995  0.4224E-01  0.5604E-01
     -4.901  0.3504E-01  0.5934E-01
     -4.807  0.2697E-01  0.6188E-01
     -4.713  0.2457E-01  0.6419E-01
     -4.618  0.2912E-01  0.6693E-01
     -4.524  0.3600E-01  0.7032E-01
     -4.430  0.3886E-01  0.7397E-01
     -4.336  0.3435E-01  0.7720E-01
     -4.242  0.2443E-01  0.7950E-01
     -4.148  0.1548E-01  0.8096E-01
     -4.054  0.1282E-01  0.8217E-01
     -3.960  0.1750E-01  0.8381E-01
     -3.866  0.2845E-01  0.8649E-01
     -3.772  0.4239E-01  0.9048E-01
     -3.677  0.5493E-01  0.9565E-01
     -3.583  0.6504E-01  0.1018E+00
     -3.489  0.7320E-01  0.1087E+00
     -3.395  0.8016E-01  0.1162E+00
     -3.301  0.9237E-01  0.1249E+00
     -3.207  0.1134E+00  0.1356E+00
     -3.113  0.1318E+00  0.1480E+00
     -3.019  0.1340E+00  0.1606E+00
     -2.925  0.1190E+00  0.1718E+00
     -2.831  0.1001E+00  0.1812E+00
     -2.736  0.9670E-01  0.1903E+00
     -2.642  0.1135E+00  0.2010E+00
     -2.548  0.1299E+00  0.2132E+00
     -2.454  0.1273E+00  0.2252E+00
     -2.360  0.1175E+00  0.2362E+00
     -2.266  0.1222E+00  0.2477E+00
     -2.172  0.1389E+00  0.2608E+00
     -2.078  0.1496E+00  0.2749E+00
     -1.984  0.1520E+00  0.2892E+00
     -1.890  0.1571E+00  0.3040E+00
     -1.796  0.1641E+00  0.3194E+00
     -1.701  0.1645E+00  0.3349E+00
     -1.607  0.1646E+00  0.3504E+00
     -1.513  0.1796E+00  0.3673E+00
     -1.419  0.2096E+00  0.3870E+00
     -1.325  0.2366E+00  0.4092E+00
     -1.231  0.2470E+00  0.4325E+00
     -1.137  0.2397E+00  0.4550E+00
     -1.043  0.2143E+00  0.4752E+00
     -0.949  0.1793E+00  0.4921E+00
     -0.855  0.1584E+00  0.5070E+00
     -0.760  0.1675E+00  0.5227E+00
     -0.666  0.1952E+00  0.5411E+00
     -0.572  0.2170E+00  0.5615E+00
     -0.478  0.2238E+00  0.5826E+00
     -0.384  0.2261E+00  0.6039E+00
     -0.290  0.2286E+00  0.6254E+00
     -0.196  0.2221E+00  0.6463E+00
     -0.102  0.2035E+00  0.6654E+00
     -0.008  0.1822E+00  0.6826E+00
      0.086  0.1702E+00  0.6986E+00
      0.181  0.1765E+00  0.7152E+00
      0.275  0.2032E+00  0.7343E+00
      0.369  0.2337E+00  0.7563E+00
      0.463  0.2359E+00  0.7785E+00
      0.557  0.1951E+00  0.7969E+00
      0.651  0.1317E+00  0.8093E+00
      0.745  0.7620E-01  0.8164E+00
      0.839  0.4204E-01  0.8204E+00
      0.933  0.2631E-01  0.8229E+00
      1.027  0.2173E-01  0.8249E+00
      1.122  0.2127E-01  0.8269E+00
      1.216  0.2037E-01  0.8288E+00
      1.310  0.2099E-01  0.8308E+00
      1.404  0.2704E-01  0.8333E+00
      1.498  0.3471E-01  0.8366E+00
      1.592  0.3559E-01  0.8400E+00
      1.686  0.2993E-01  0.8428E+00
      1.780  0.2745E-01  0.8454E+00
      1.874  0.3330E-01  0.8485E+00
      1.968  0.3994E-01  0.8522E+00
      2.062  0.3742E-01  0.8558E+00
      2.157  0.2617E-01  0.8582E+00
      2.251  0.1481E-01  0.8596E+00
      2.345  0.1095E-01  0.8607E+00
      2.439  0.1745E-01  0.8623E+00
      2.533  0.3103E-01  0.8652E+00
      2.627  0.4272E-01  0.8692E+00
      2.721  0.4495E-01  0.8735E+00
      2.815  0.3820E-01  0.8771E+00
      2.909  0.2979E-01  0.8799E+00
      3.003  0.2902E-01  0.8826E+00
      3.098  0.3906E-01  0.8863E+00
      3.192  0.5062E-01  0.8910E+00
      3.286  0.5120E-01  0.8959E+00
      3.380  0.4064E-01  0.8997E+00
      3.474  0.2796E-01  0.9023E+00
      3.568  0.1854E-01  0.9041E+00
      3.662  0.1218E-01  0.9052E+00
      3.756  0.7363E-02  0.9059E+00
      3.850  0.3953E-02  0.9063E+00
      3.944  0.3392E-02  0.9066E+00
      4.039  0.7426E-02  0.9073E+00
      4.133  0.1607E-01  0.9088E+00
      4.227  0.2526E-01  0.9112E+00
      4.321  0.2899E-01  0.9139E+00
      4.415  0.2558E-01  0.9163E+00
      4.509  0.1892E-01  0.9181E+00
      4.603  0.1361E-01  0.9194E+00
      4.697  0.1214E-01  0.9205E+00
      4.791  0.1505E-01  0.9219E+00
      4.885  0.1900E-01  0.9237E+00
      4.980  0.1866E-01  0.9255E+00
      5.074  0.1400E-01  0.9268E+00
      5.168  0.9818E-02  0.9277E+00
      5.262  0.7864E-02  0.9284E+00
      5.356  0.5976E-02  0.9290E+00
      5.450  0.3361E-02  0.9293E+00
      5.544  0.1272E-02  0.9294E+00
      5.638  0.3161E-03  0.9295E+00
      5.732  0.5125E-04  0.9295E+00
      5.826  0.5410E-05  0.9295E+00
      5.921  0.3713E-06  0.9295E+00
      6.015  0.1655E-07  0.9295E+00
      6.109  0.4784E-09  0.9295E+00
      6.203  0.8960E-11  0.9295E+00
      6.297  0.1087E-12  0.9295E+00
      6.391  0.8511E-15  0.9295E+00
      6.485  0.5456E-17  0.9295E+00
      6.579  0.0000E+00  0.9295E+00
      6.673  0.0000E+00  0.9295E+00
      6.767  0.0000E+00  0.9295E+00
      6.861  0.0000E+00  0.9295E+00
      6.956  0.0000E+00  0.9295E+00
      7.050  0.0000E+00  0.9295E+00
      7.144  0.0000E+00  0.9295E+00
      7.238  0.0000E+00  0.9295E+00
      7.23788061    -20.99147914  301      0.44539093      1.00000000
    -20.991  0.0000E+00  0.0000E+00  0.0000E+00
    -20.897  0.0000E+00  0.0000E+00  0.0000E+00
    -20.803  0.0000E+00  0.0000E+00  0.0000E+00
    -20.709  0.0000E+00  0.0000E+00  0.0000E+00
    -20.615  0.0000E+00  0.0000E+00  0.0000E+00
    -20.521  0.0000E+00  0.0000E+00  0.0000E+00
    -20.427  0.0000E+00  0.0000E+00  0.0000E+00
    -20.333  0.0000E+00  0.0000E+00  0.0000E+00
    -20.239  0.0000E+00  0.0000E+00  0.0000E+00
    -20.145  0.9156E-25  0.7530E-25  0.8746E-26
    -20.051  0.1907E-22  0.1569E-22  0.1822E-23
    -19.956  0.2431E-20  0.1999E-20  0.2322E-21
    -19.862  0.2005E-18  0.1649E-18  0.1915E-19
    -19.768  0.1070E-16  0.8803E-17  0.1022E-17
    -19.674  0.3703E-15  0.3045E-15  0.3537E-16
    -19.580  0.8309E-14  0.6833E-14  0.7939E-15
    -19.486  0.1211E-12  0.9959E-13  0.1157E-13
    -19.392  0.1148E-11  0.9438E-12  0.1098E-12
    -19.298  0.7090E-11  0.5829E-11  0.6810E-12
    -19.204  0.2867E-10  0.2356E-10  0.2786E-11
    -19.110  0.7684E-10  0.6294E-10  0.7723E-11
    -19.015  0.1416E-09  0.1149E-09  0.1560E-10
    -18.921  0.1986E-09  0.1565E-09  0.2634E-10
    -18.827  0.2517E-09  0.1877E-09  0.4146E-10
    -18.733  0.3093E-09  0.2186E-09  0.5693E-10
    -18.639  0.3218E-09  0.2206E-09  0.5949E-10
    -18.545  0.2453E-09  0.1660E-09  0.4366E-10
    -18.451  0.1283E-09  0.8647E-10  0.2182E-10
    -18.357  0.4506E-10  0.3037E-10  0.7339E-11
    -18.263  0.1051E-10  0.7112E-11  0.1651E-11
    -18.169  0.1622E-11  0.1104E-11  0.2471E-12
    -18.074  0.1647E-12  0.1130E-12  0.2449E-13
    -17.980  0.1098E-13  0.7596E-14  0.1601E-14
    -17.886  0.4790E-15  0.3346E-15  0.6873E-16
    -17.792  0.1364E-16  0.9625E-17  0.1933E-17
    -17.698  0.2532E-18  0.1805E-18  0.3549E-19
    -17.604  0.3056E-20  0.2201E-20  0.4246E-21
    -17.510  0.2403E-22  0.1747E-22  0.3313E-23
    -17.416  0.8186E-25  0.6810E-25  0.1042E-25
    -17.322  0.0000E+00  0.0000E+00  0.0000E+00
    -17.228  0.0000E+00  0.0000E+00  0.0000E+00
    -17.133  0.0000E+00  0.0000E+00  0.0000E+00
    -17.039  0.0000E+00  0.0000E+00  0.0000E+00
    -16.945  0.0000E+00  0.0000E+00  0.0000E+00
    -16.851  0.0000E+00  0.0000E+00  0.0000E+00
    -16.757  0.0000E+00  0.0000E+00  0.0000E+00
    -16.663  0.0000E+00  0.0000E+00  0.0000E+00
    -16.569  0.0000E+00  0.0000E+00  0.0000E+00
    -16.475  0.0000E+00  0.0000E+00  0.0000E+00
    -16.381  0.0000E+00  0.0000E+00  0.0000E+00
    -16.287  0.0000E+00  0.0000E+00  0.0000E+00
    -16.192  0.0000E+00  0.0000E+00  0.0000E+00
    -16.098  0.0000E+00  0.0000E+00  0.0000E+00
    -16.004  0.0000E+00  0.0000E+00  0.0000E+00
    -15.910  0.0000E+00  0.0000E+00  0.0000E+00
    -15.816  0.0000E+00  0.0000E+00  0.0000E+00
    -15.722  0.0000E+00  0.0000E+00  0.0000E+00
    -15.628  0.0000E+00  0.0000E+00  0.0000E+00
    -15.534  0.0000E+00  0.0000E+00  0.0000E+00
    -15.440  0.0000E+00  0.0000E+00  0.0000E+00
    -15.346  0.0000E+00  0.0000E+00  0.0000E+00
    -15.252  0.0000E+00  0.0000E+00  0.0000E+00
    -15.157  0.0000E+00  0.0000E+00  0.0000E+00
    -15.063  0.0000E+00  0.0000E+00  0.0000E+00
    -14.969  0.0000E+00  0.0000E+00  0.0000E+00
    -14.875  0.0000E+00  0.0000E+00  0.0000E+00
    -14.781  0.0000E+00  0.0000E+00  0.0000E+00
    -14.687  0.0000E+00  0.0000E+00  0.0000E+00
    -14.593  0.0000E+00  0.0000E+00  0.0000E+00
    -14.499  0.0000E+00  0.0000E+00  0.0000E+00
    -14.405  0.0000E+00  0.0000E+00  0.0000E+00
    -14.311  0.0000E+00  0.0000E+00  0.0000E+00
    -14.216  0.0000E+00  0.0000E+00  0.0000E+00
    -14.122  0.0000E+00  0.0000E+00  0.0000E+00
    -14.028  0.0000E+00  0.0000E+00  0.0000E+00
    -13.934  0.0000E+00  0.0000E+00  0.0000E+00
    -13.840  0.0000E+00  0.0000E+00  0.0000E+00
    -13.746  0.0000E+00  0.0000E+00  0.0000E+00
    -13.652  0.0000E+00  0.0000E+00  0.0000E+00
    -13.558  0.0000E+00  0.0000E+00  0.0000E+00
    -13.464  0.0000E+00  0.0000E+00  0.0000E+00
    -13.370  0.0000E+00  0.0000E+00  0.0000E+00
    -13.275  0.0000E+00  0.0000E+00  0.0000E+00
    -13.181  0.0000E+00  0.0000E+00  0.0000E+00
    -13.087  0.0000E+00  0.0000E+00  0.0000E+00
    -12.993  0.0000E+00  0.0000E+00  0.0000E+00
    -12.899  0.0000E+00  0.0000E+00  0.0000E+00
    -12.805  0.0000E+00  0.0000E+00  0.0000E+00
    -12.711  0.0000E+00  0.0000E+00  0.0000E+00
    -12.617  0.0000E+00  0.0000E+00  0.0000E+00
    -12.523  0.0000E+00  0.0000E+00  0.0000E+00
    -12.429  0.0000E+00  0.0000E+00  0.0000E+00
    -12.334  0.0000E+00  0.0000E+00  0.0000E+00
    -12.240  0.0000E+00  0.0000E+00  0.0000E+00
    -12.146  0.0000E+00  0.0000E+00  0.0000E+00
    -12.052  0.0000E+00  0.0000E+00  0.0000E+00
    -11.958  0.0000E+00  0.0000E+00  0.0000E+00
    -11.864  0.0000E+00  0.0000E+00  0.0000E+00
    -11.770  0.0000E+00  0.0000E+00  0.0000E+00
    -11.676  0.0000E+00  0.0000E+00  0.0000E+00
    -11.582  0.0000E+00  0.0000E+00  0.0000E+00
    -11.488  0.0000E+00  0.0000E+00  0.0000E+00
    -11.393  0.0000E+00  0.0000E+00  0.0000E+00
    -11.299  0.0000E+00  0.0000E+00  0.0000E+00
    -11.205  0.0000E+00  0.0000E+00  0.0000E+00
    -11.111  0.0000E+00  0.0000E+00  0.0000E+00
    -11.017  0.0000E+00  0.0000E+00  0.0000E+00
    -10.923  0.0000E+00  0.0000E+00  0.0000E+00
    -10.829  0.0000E+00  0.0000E+00  0.0000E+00
    -10.735  0.0000E+00  0.0000E+00  0.0000E+00
    -10.641  0.0000E+00  0.0000E+00  0.0000E+00
    -10.547  0.0000E+00  0.0000E+00  0.0000E+00
    -10.453  0.0000E+00  0.0000E+00  0.0000E+00
    -10.358  0.0000E+00  0.0000E+00  0.0000E+00
    -10.264  0.0000E+00  0.0000E+00  0.0000E+00
    -10.170  0.0000E+00  0.0000E+00  0.0000E+00
    -10.076  0.0000E+00  0.0000E+00  0.0000E+00
     -9.982  0.0000E+00  0.0000E+00  0.0000E+00
     -9.888  0.0000E+00  0.0000E+00  0.0000E+00
     -9.794  0.0000E+00  0.0000E+00  0.0000E+00
     -9.700  0.0000E+00  0.0000E+00  0.0000E+00
     -9.606  0.0000E+00  0.0000E+00  0.0000E+00
     -9.512  0.0000E+00  0.0000E+00  0.0000E+00
     -9.417  0.0000E+00  0.0000E+00  0.0000E+00
     -9.323  0.0000E+00  0.0000E+00  0.0000E+00
     -9.229  0.0000E+00  0.0000E+00  0.0000E+00
     -9.135  0.2412E-15  0.3082E-16  0.5422E-19
     -9.041  0.3826E-13  0.4889E-14  0.8602E-17
     -8.947  0.3946E-11  0.5042E-12  0.8871E-15
     -8.853  0.2633E-09  0.3365E-10  0.5920E-13
     -8.759  0.1138E-07  0.1454E-08  0.2559E-11
     -8.665  0.3189E-06  0.4075E-07  0.7169E-10
     -8.571  0.5799E-05  0.7409E-06  0.1304E-08
     -8.476  0.6851E-04  0.8754E-05  0.1540E-07
     -8.382  0.5264E-03  0.6727E-04  0.1183E-06
     -8.288  0.2634E-02  0.3366E-03  0.5921E-06
     -8.194  0.8588E-02  0.1097E-02  0.1931E-05
     -8.100  0.1826E-01  0.2334E-02  0.4106E-05
     -8.006  0.2535E-01  0.3239E-02  0.5698E-05
     -7.912  0.2296E-01  0.2933E-02  0.5161E-05
     -7.818  0.1357E-01  0.1734E-02  0.3051E-05
     -7.724  0.5233E-02  0.6686E-03  0.1176E-05
     -7.630  0.1316E-02  0.1681E-03  0.2958E-06
     -7.535  0.2155E-03  0.2754E-04  0.4845E-07
     -7.441  0.2297E-04  0.2935E-05  0.5205E-08
     -7.347  0.1644E-05  0.2058E-06  0.1976E-08
     -7.253  0.1434E-05  0.7201E-07  0.4218E-07
     -7.159  0.2304E-04  0.1063E-05  0.7131E-06
     -7.065  0.2532E-03  0.1169E-04  0.7838E-05
     -6.971  0.1811E-02  0.8356E-04  0.5604E-04
     -6.877  0.8431E-02  0.3892E-03  0.2610E-03
     -6.783  0.2559E-01  0.1183E-02  0.7928E-03
     -6.689  0.5074E-01  0.2366E-02  0.1579E-02
     -6.595  0.6614E-01  0.3254E-02  0.2120E-02
     -6.500  0.5886E-01  0.3812E-02  0.2236E-02
     -6.406  0.4348E-01  0.6064E-02  0.2956E-02
     -6.312  0.4304E-01  0.1235E-01  0.5661E-02
     -6.218  0.5738E-01  0.2107E-01  0.9856E-02
     -6.124  0.6583E-01  0.2581E-01  0.1248E-01
     -6.030  0.5452E-01  0.2202E-01  0.1097E-01
     -5.936  0.3174E-01  0.1300E-01  0.6662E-02
     -5.842  0.1554E-01  0.5964E-02  0.3255E-02
     -5.748  0.1771E-01  0.5132E-02  0.3157E-02
     -5.654  0.4346E-01  0.1149E-01  0.6943E-02
     -5.559  0.8691E-01  0.2298E-01  0.1332E-01
     -5.465  0.1205E+00  0.3217E-01  0.1835E-01
     -5.371  0.1175E+00  0.3170E-01  0.1842E-01
     -5.277  0.9016E-01  0.2438E-01  0.1498E-01
     -5.183  0.7108E-01  0.1875E-01  0.1243E-01
     -5.089  0.6468E-01  0.1663E-01  0.1155E-01
     -4.995  0.5507E-01  0.1441E-01  0.1032E-01
     -4.901  0.4082E-01  0.1196E-01  0.9814E-02
     -4.807  0.3723E-01  0.1314E-01  0.1430E-01
     -4.713  0.6207E-01  0.2076E-01  0.2612E-01
     -4.618  0.1216E+00  0.3318E-01  0.4206E-01
     -4.524  0.1940E+00  0.4433E-01  0.5461E-01
     -4.430  0.2339E+00  0.4743E-01  0.5699E-01
     -4.336  0.2080E+00  0.3980E-01  0.4764E-01
     -4.242  0.1332E+00  0.2545E-01  0.3292E-01
     -4.148  0.6187E-01  0.1251E-01  0.2409E-01
     -4.054  0.2525E-01  0.6018E-02  0.2793E-01
     -3.960  0.1606E-01  0.5597E-02  0.4570E-01
     -3.866  0.1821E-01  0.9941E-02  0.7949E-01
     -3.772  0.2590E-01  0.1919E-01  0.1256E+00
     -3.677  0.4309E-01  0.3390E-01  0.1695E+00
     -3.583  0.7641E-01  0.5282E-01  0.2050E+00
     -3.489  0.1241E+00  0.6959E-01  0.2509E+00
     -3.395  0.1756E+00  0.7781E-01  0.3564E+00
     -3.301  0.2194E+00  0.8245E-01  0.5781E+00
     -3.207  0.2430E+00  0.9284E-01  0.8738E+00
     -3.113  0.2341E+00  0.1053E+00  0.1053E+01
     -3.019  0.1921E+00  0.1063E+00  0.9717E+00
     -2.925  0.1307E+00  0.8861E-01  0.7261E+00
     -2.831  0.7246E-01  0.6177E-01  0.5306E+00
     -2.736  0.3664E-01  0.4407E-01  0.5085E+00
     -2.642  0.2515E-01  0.4207E-01  0.6282E+00
     -2.548  0.2449E-01  0.4524E-01  0.7596E+00
     -2.454  0.2243E-01  0.4523E-01  0.8339E+00
     -2.360  0.1824E-01  0.4905E-01  0.9581E+00
     -2.266  0.1664E-01  0.6401E-01  0.1239E+01
     -2.172  0.1784E-01  0.7924E-01  0.1535E+01
     -2.078  0.1840E-01  0.7960E-01  0.1641E+01
     -1.984  0.1827E-01  0.6973E-01  0.1634E+01
     -1.890  0.2007E-01  0.6285E-01  0.1683E+01
     -1.796  0.2272E-01  0.5874E-01  0.1700E+01
     -1.701  0.2446E-01  0.5529E-01  0.1600E+01
     -1.607  0.3236E-01  0.6856E-01  0.1645E+01
     -1.513  0.5899E-01  0.1199E+00  0.2177E+01
     -1.419  0.1021E+00  0.1983E+00  0.3128E+01
     -1.325  0.1335E+00  0.2472E+00  0.4023E+01
     -1.231  0.1272E+00  0.2231E+00  0.4498E+01
     -1.137  0.9308E-01  0.1521E+00  0.4471E+01
     -1.043  0.5841E-01  0.8812E-01  0.3837E+01
     -0.949  0.3489E-01  0.5050E-01  0.2727E+01
     -0.855  0.2054E-01  0.3186E-01  0.1762E+01
     -0.760  0.1255E-01  0.2393E-01  0.1431E+01
     -0.666  0.9115E-02  0.2138E-01  0.1642E+01
     -0.572  0.8457E-02  0.2020E-01  0.2077E+01
     -0.478  0.9795E-02  0.1877E-01  0.2644E+01
     -0.384  0.1371E-01  0.1813E-01  0.3374E+01
     -0.290  0.2020E-01  0.1954E-01  0.3968E+01
     -0.196  0.2655E-01  0.2357E-01  0.3963E+01
     -0.102  0.2826E-01  0.3173E-01  0.3406E+01
     -0.008  0.2385E-01  0.4539E-01  0.2807E+01
      0.086  0.1782E-01  0.6230E-01  0.2507E+01
      0.181  0.1548E-01  0.7605E-01  0.2539E+01
      0.275  0.1685E-01  0.7965E-01  0.2843E+01
      0.369  0.1871E-01  0.7094E-01  0.3210E+01
      0.463  0.1963E-01  0.5665E-01  0.3245E+01
      0.557  0.1992E-01  0.4629E-01  0.2701E+01
      0.651  0.1889E-01  0.4060E-01  0.1755E+01
      0.745  0.1612E-01  0.3314E-01  0.8636E+00
      0.839  0.1557E-01  0.2354E-01  0.3323E+00
      0.933  0.2342E-01  0.1973E-01  0.1421E+00
      1.027  0.3751E-01  0.2488E-01  0.1250E+00
      1.122  0.4440E-01  0.3184E-01  0.1397E+00
      1.216  0.3622E-01  0.3589E-01  0.1259E+00
      1.310  0.2265E-01  0.4704E-01  0.1025E+00
      1.404  0.1546E-01  0.7818E-01  0.1086E+00
      1.498  0.1382E-01  0.1193E+00  0.1374E+00
      1.592  0.1221E-01  0.1387E+00  0.1500E+00
      1.686  0.1188E-01  0.1203E+00  0.1438E+00
      1.780  0.1849E-01  0.8611E-01  0.1657E+00
      1.874  0.3183E-01  0.6769E-01  0.2329E+00
      1.968  0.4166E-01  0.6659E-01  0.2836E+00
      2.062  0.3806E-01  0.6146E-01  0.2529E+00
      2.157  0.2474E-01  0.4371E-01  0.1623E+00
      2.251  0.1617E-01  0.2688E-01  0.8790E-01
      2.345  0.2523E-01  0.3031E-01  0.8630E-01
      2.439  0.5363E-01  0.6798E-01  0.1703E+00
      2.533  0.8336E-01  0.1390E+00  0.2907E+00
      2.627  0.8762E-01  0.2165E+00  0.3477E+00
      2.721  0.6383E-01  0.2586E+00  0.2962E+00
      2.815  0.3551E-01  0.2411E+00  0.1987E+00
      2.909  0.2100E-01  0.1918E+00  0.1380E+00
      3.003  0.2380E-01  0.1825E+00  0.1498E+00
      3.098  0.4026E-01  0.2533E+00  0.2202E+00
      3.192  0.5763E-01  0.3416E+00  0.2805E+00
      3.286  0.5902E-01  0.3420E+00  0.2595E+00
      3.380  0.4258E-01  0.2427E+00  0.1716E+00
      3.474  0.2245E-01  0.1261E+00  0.8880E-01
      3.568  0.9415E-02  0.5132E-01  0.4689E-01
      3.662  0.3594E-02  0.1741E-01  0.3164E-01
      3.756  0.1620E-02  0.5276E-02  0.2191E-01
      3.850  0.2289E-02  0.3592E-02  0.1324E-01
      3.944  0.8107E-02  0.1207E-01  0.1341E-01
      4.039  0.2337E-01  0.3888E-01  0.3212E-01
      4.133  0.4560E-01  0.8675E-01  0.7109E-01
      4.227  0.6031E-01  0.1344E+00  0.1124E+00
      4.321  0.5556E-01  0.1479E+00  0.1282E+00
      4.415  0.3761E-01  0.1188E+00  0.1119E+00
      4.509  0.2059E-01  0.7187E-01  0.8242E-01
      4.603  0.1037E-01  0.3673E-01  0.5783E-01
      4.697  0.5084E-02  0.2565E-01  0.4366E-01
      4.791  0.2277E-02  0.3373E-01  0.4102E-01
      4.885  0.9731E-03  0.4511E-01  0.4394E-01
      4.980  0.6972E-03  0.4457E-01  0.4008E-01
      5.074  0.1200E-02  0.3347E-01  0.2730E-01
      5.168  0.2244E-02  0.2435E-01  0.1515E-01
      5.262  0.3018E-02  0.2057E-01  0.8867E-02
      5.356  0.2697E-02  0.1605E-01  0.5690E-02
      5.450  0.1578E-02  0.9096E-02  0.3045E-02
      5.544  0.6025E-03  0.3450E-02  0.1139E-02
      5.638  0.1500E-03  0.8577E-03  0.2823E-03
      5.732  0.2434E-04  0.1391E-03  0.4575E-04
      5.826  0.2570E-05  0.1468E-04  0.4829E-05
      5.921  0.1764E-06  0.1008E-05  0.3314E-06
      6.015  0.7860E-08  0.4491E-07  0.1477E-07
      6.109  0.2272E-09  0.1298E-08  0.4269E-09
      6.203  0.4256E-11  0.2432E-10  0.7997E-11
      6.297  0.5161E-13  0.2949E-12  0.9697E-13
      6.391  0.4043E-15  0.2310E-14  0.7596E-15
      6.485  0.2591E-17  0.1481E-16  0.4869E-17
      6.579  0.0000E+00  0.0000E+00  0.0000E+00
      6.673  0.0000E+00  0.0000E+00  0.0000E+00
      6.767  0.0000E+00  0.0000E+00  0.0000E+00
      6.861  0.0000E+00  0.0000E+00  0.0000E+00
      6.956  0.0000E+00  0.0000E+00  0.0000E+00
      7.050  0.0000E+00  0.0000E+00  0.0000E+00
      7.144  0.0000E+00  0.0000E+00  0.0000E+00
      7.238  0.0000E+00  0.0000E+00  0.0000E+00
      7.23788061    -20.99147914  301      0.44539093      1.00000000
    -20.991  0.0000E+00  0.0000E+00  0.0000E+00
    -20.897  0.0000E+00  0.0000E+00  0.0000E+00
    -20.803  0.0000E+00  0.0000E+00  0.0000E+00
    -20.709  0.0000E+00  0.0000E+00  0.0000E+00
    -20.615  0.0000E+00  0.0000E+00  0.0000E+00
    -20.521  0.0000E+00  0.0000E+00  0.0000E+00
    -20.427  0.0000E+00  0.0000E+00  0.0000E+00
    -20.333  0.0000E+00  0.0000E+00  0.0000E+00
    -20.239  0.0000E+00  0.0000E+00  0.0000E+00
    -20.145  0.4968E-17  0.5776E-17  0.4911E-17
    -20.051  0.1035E-14  0.1203E-14  0.1023E-14
    -19.956  0.1319E-12  0.1534E-12  0.1304E-12
    -19.862  0.1088E-10  0.1265E-10  0.1075E-10
    -19.768  0.5808E-09  0.6752E-09  0.5742E-09
    -19.674  0.2010E-07  0.2336E-07  0.1987E-07
    -19.580  0.4512E-06  0.5246E-06  0.4461E-06
    -19.486  0.6587E-05  0.7661E-05  0.6514E-05
    -19.392  0.6277E-04  0.7305E-04  0.6212E-04
    -19.298  0.3941E-03  0.4597E-03  0.3909E-03
    -19.204  0.1672E-02  0.1963E-02  0.1669E-02
    -19.110  0.5110E-02  0.6090E-02  0.5179E-02
    -19.015  0.1266E-01  0.1550E-01  0.1319E-01
    -18.921  0.2802E-01  0.3524E-01  0.3006E-01
    -18.827  0.5288E-01  0.6747E-01  0.5771E-01
    -18.733  0.7550E-01  0.9662E-01  0.8290E-01
    -18.639  0.7540E-01  0.9626E-01  0.8289E-01
    -18.545  0.5107E-01  0.6492E-01  0.5610E-01
    -18.451  0.2324E-01  0.2940E-01  0.2550E-01
    -18.357  0.7086E-02  0.8922E-02  0.7766E-02
    -18.263  0.1446E-02  0.1814E-02  0.1583E-02
    -18.169  0.1971E-03  0.2466E-03  0.2157E-03
    -18.074  0.1789E-04  0.2236E-04  0.1958E-04
    -17.980  0.1077E-05  0.1347E-05  0.1180E-05
    -17.886  0.4289E-07  0.5376E-07  0.4703E-07
    -17.792  0.1124E-08  0.1414E-08  0.1234E-08
    -17.698  0.1932E-10  0.2442E-10  0.2126E-10
    -17.604  0.2170E-12  0.2761E-12  0.2394E-12
    -17.510  0.1599E-14  0.2048E-14  0.1769E-14
    -17.416  0.1198E-17  0.2356E-17  0.1592E-17
    -17.322  0.0000E+00  0.0000E+00  0.0000E+00
    -17.228  0.0000E+00  0.0000E+00  0.0000E+00
    -17.133  0.0000E+00  0.0000E+00  0.0000E+00
    -17.039  0.0000E+00  0.0000E+00  0.0000E+00
    -16.945  0.0000E+00  0.0000E+00  0.0000E+00
    -16.851  0.0000E+00  0.0000E+00  0.0000E+00
    -16.757  0.0000E+00  0.0000E+00  0.0000E+00
    -16.663  0.0000E+00  0.0000E+00  0.0000E+00
    -16.569  0.0000E+00  0.0000E+00  0.0000E+00
    -16.475  0.0000E+00  0.0000E+00  0.0000E+00
    -16.381  0.0000E+00  0.0000E+00  0.0000E+00
    -16.287  0.0000E+00  0.0000E+00  0.0000E+00
    -16.192  0.0000E+00  0.0000E+00  0.0000E+00
    -16.098  0.0000E+00  0.0000E+00  0.0000E+00
    -16.004  0.0000E+00  0.0000E+00  0.0000E+00
    -15.910  0.0000E+00  0.0000E+00  0.0000E+00
    -15.816  0.0000E+00  0.0000E+00  0.0000E+00
    -15.722  0.0000E+00  0.0000E+00  0.0000E+00
    -15.628  0.0000E+00  0.0000E+00  0.0000E+00
    -15.534  0.0000E+00  0.0000E+00  0.0000E+00
    -15.440  0.0000E+00  0.0000E+00  0.0000E+00
    -15.346  0.0000E+00  0.0000E+00  0.0000E+00
    -15.252  0.0000E+00  0.0000E+00  0.0000E+00
    -15.157  0.0000E+00  0.0000E+00  0.0000E+00
    -15.063  0.0000E+00  0.0000E+00  0.0000E+00
    -14.969  0.0000E+00  0.0000E+00  0.0000E+00
    -14.875  0.0000E+00  0.0000E+00  0.0000E+00
    -14.781  0.0000E+00  0.0000E+00  0.0000E+00
    -14.687  0.0000E+00  0.0000E+00  0.0000E+00
    -14.593  0.0000E+00  0.0000E+00  0.0000E+00
    -14.499  0.0000E+00  0.0000E+00  0.0000E+00
    -14.405  0.0000E+00  0.0000E+00  0.0000E+00
    -14.311  0.0000E+00  0.0000E+00  0.0000E+00
    -14.216  0.0000E+00  0.0000E+00  0.0000E+00
    -14.122  0.0000E+00  0.0000E+00  0.0000E+00
    -14.028  0.0000E+00  0.0000E+00  0.0000E+00
    -13.934  0.0000E+00  0.0000E+00  0.0000E+00
    -13.840  0.0000E+00  0.0000E+00  0.0000E+00
    -13.746  0.0000E+00  0.0000E+00  0.0000E+00
    -13.652  0.0000E+00  0.0000E+00  0.0000E+00
    -13.558  0.0000E+00  0.0000E+00  0.0000E+00
    -13.464  0.0000E+00  0.0000E+00  0.0000E+00
    -13.370  0.0000E+00  0.0000E+00  0.0000E+00
    -13.275  0.0000E+00  0.0000E+00  0.0000E+00
    -13.181  0.0000E+00  0.0000E+00  0.0000E+00
    -13.087  0.0000E+00  0.0000E+00  0.0000E+00
    -12.993  0.0000E+00  0.0000E+00  0.0000E+00
    -12.899  0.0000E+00  0.0000E+00  0.0000E+00
    -12.805  0.0000E+00  0.0000E+00  0.0000E+00
    -12.711  0.0000E+00  0.0000E+00  0.0000E+00
    -12.617  0.0000E+00  0.0000E+00  0.0000E+00