       N       E                     dE             d eps       ncg     rms          rms(c)
DAV:   1     0.612524163035E+04    0.61252E+04   -0.34929E+05   804   0.215E+03
DAV:   2     0.406043801533E+03   -0.57192E+04   -0.55251E+04   804   0.471E+02
DAV:   3    -0.272884438964E+03   -0.67893E+03   -0.61658E+03   819   0.189E+02
DAV:   4    -0.361371825161E+03   -0.88487E+02   -0.78194E+02  1095   0.557E+01
DAV:   5    -0.367258541937E+03   -0.58867E+01   -0.57128E+01   870   0.129E+01    0.101E+01
RMM:   6    -0.424455473265E+03   -0.57197E+02   -0.30305E+01   810   0.134E+01    0.981E+01
RMM:   7    -0.380356856630E+03    0.44099E+02   -0.22551E+01   810   0.124E+01    0.464E+01
RMM:   8    -0.367412706238E+03    0.12944E+02   -0.75552E+00   817   0.726E+00    0.170E+01
RMM:   9    -0.366466724435E+03    0.94598E+00   -0.83559E-01   815   0.206E+00    0.763E+00
RMM:  10    -0.366987909031E+03   -0.52118E+00   -0.85213E-01   810   0.223E+00    0.143E+01
RMM:  11    -0.366381140216E+03    0.60677E+00   -0.46425E-01   811   0.182E+00    0.588E+00
RMM:  12    -0.366342364517E+03    0.38776E-01   -0.28541E-01   807   0.136E+00    0.522E+00
RMM:  13    -0.366462827783E+03   -0.12046E+00   -0.21141E-01   810   0.120E+00    0.781E+00
RMM:  14    -0.366278857441E+03    0.18397E+00   -0.12730E-01   811   0.988E-01    0.301E+00
RMM:  15    -0.366284158829E+03   -0.53014E-02   -0.58752E-02   809   0.613E-01    0.336E+00
RMM:  16    -0.366274836219E+03    0.93226E-02   -0.45793E-02   810   0.548E-01    0.282E+00
RMM:  17    -0.366252048377E+03    0.22788E-01   -0.28603E-02   811   0.450E-01    0.174E+00
RMM:  18    -0.366249224157E+03    0.28242E-02   -0.11561E-02   807   0.275E-01    0.145E+00
RMM:  19    -0.366242329039E+03    0.68951E-02   -0.59100E-03   810   0.205E-01    0.653E-01
RMM:  20    -0.366241403634E+03    0.92541E-03   -0.19869E-03   810   0.117E-01    0.480E-01
RMM:  21    -0.366242173717E+03   -0.77008E-03   -0.13622E-03   810   0.971E-02    0.686E-01
RMM:  22    -0.366241044844E+03    0.11289E-02   -0.92857E-04   808   0.833E-02    0.363E-01
RMM:  23    -0.366240852272E+03    0.19257E-03   -0.34266E-04   807   0.478E-02    0.291E-01
RMM:  24    -0.366240599450E+03    0.25282E-03   -0.14317E-04   810   0.316E-02    0.119E-01
RMM:  25    -0.366240623647E+03   -0.24197E-04   -0.67610E-05   801   0.213E-02    0.146E-01
RMM:  26    -0.366240628896E+03   -0.52489E-05   -0.71242E-05   803   0.216E-02    0.125E-01
RMM:  27    -0.366240575917E+03    0.52979E-04   -0.46226E-05   801   0.183E-02    0.246E-02
RMM:  28    -0.366240597776E+03   -0.21859E-04   -0.15631E-05   793   0.990E-03    0.636E-02
RMM:  29    -0.366240599671E+03   -0.18950E-05   -0.94737E-06   774   0.849E-03    0.422E-02
RMM:  30    -0.366240599060E+03    0.61047E-06   -0.52092E-06   679   0.617E-03
   1 F= -.38430019E+03 E0= -.38231697E+03  d E =-.396645E+01
       N       E                     dE             d eps       ncg     rms          rms(c)
DAV:   1    -0.366236765080E+03    0.38346E-02   -0.12221E+00   804   0.117E+00    0.249E-01
RMM:   2    -0.366246358269E+03   -0.95932E-02   -0.37878E-02   813   0.343E-01    0.125E+00
RMM:   3    -0.366239934385E+03    0.64239E-02   -0.40962E-03   808   0.161E-01    0.382E-01
RMM:   4    -0.366239858991E+03    0.75394E-04   -0.76185E-04   813   0.690E-02    0.401E-01
RMM:   5    -0.366241289543E+03   -0.14306E-02   -0.56677E-04   810   0.628E-02    0.799E-01
RMM:   6    -0.366240185037E+03    0.11045E-02   -0.43352E-04   808   0.566E-02    0.495E-01
RMM:   7    -0.366240131301E+03    0.53736E-04   -0.62602E-04   808   0.652E-02    0.457E-01
RMM:   8    -0.366241376477E+03   -0.12452E-02   -0.16376E-03   807   0.103E-01    0.703E-01
RMM:   9    -0.366239780213E+03    0.15963E-02   -0.12738E-03   806   0.987E-02    0.304E-01
RMM:  10    -0.366239466728E+03    0.31348E-03   -0.27307E-04   807   0.437E-02    0.115E-01
RMM:  11    -0.366239462252E+03    0.44758E-05   -0.87039E-05   806   0.237E-02    0.106E-01
RMM:  12    -0.366239438449E+03    0.23804E-04   -0.44983E-05   806   0.177E-02    0.711E-02
RMM:  13    -0.366239422965E+03    0.15484E-04   -0.20318E-05   798   0.123E-02    0.327E-02
RMM:  14    -0.366239431234E+03   -0.82698E-05   -0.10021E-05   780   0.820E-03    0.560E-02
RMM:  15    -0.366239422463E+03    0.87711E-05   -0.62190E-06   716   0.694E-03    0.183E-02
RMM:  16    -0.366239422969E+03   -0.50571E-06   -0.24148E-06   459   0.429E-03
   2 F= -.38429902E+03 E0= -.38231575E+03  d E =-.396654E+01
       N       E                     dE             d eps       ncg     rms          rms(c)
DAV:   1    -0.366227978160E+03    0.11444E-01   -0.48747E+00   804   0.235E+00    0.507E-01
RMM:   2    -0.366265030103E+03   -0.37052E-01   -0.16161E-01   810   0.686E-01    0.236E+00
RMM:   3    -0.366241175074E+03    0.23855E-01   -0.15920E-02   808   0.310E-01    0.672E-01
RMM:   4    -0.366243151444E+03   -0.19764E-02   -0.32970E-03   816   0.144E-01    0.111E+00
RMM:   5    -0.366248500211E+03   -0.53488E-02   -0.24237E-03   811   0.128E-01    0.175E+00
RMM:   6    -0.366242281842E+03    0.62184E-02   -0.23771E-03   809   0.132E-01    0.894E-01
RMM:   7    -0.366242120474E+03    0.16137E-03   -0.27831E-03   806   0.139E-01    0.846E-01
RMM:   8    -0.366246854538E+03   -0.47341E-02   -0.63821E-03   809   0.205E-01    0.136E+00
RMM:   9    -0.366240889864E+03    0.59647E-02   -0.49015E-03   807   0.193E-01    0.600E-01
RMM:  10    -0.366239789431E+03    0.11004E-02   -0.11971E-03   806   0.917E-02    0.279E-01
RMM:  11    -0.366239838364E+03   -0.48932E-04   -0.49121E-04   810   0.574E-02    0.300E-01
RMM:  12    -0.366239562262E+03    0.27610E-03   -0.25136E-04   808   0.426E-02    0.144E-01
RMM:  13    -0.366239506941E+03    0.55321E-04   -0.97219E-05   803   0.262E-02    0.818E-02
RMM:  14    -0.366239523517E+03   -0.16576E-04   -0.49246E-05   804   0.183E-02    0.115E-01
RMM:  15    -0.366239482476E+03    0.41041E-04   -0.26039E-05   799   0.143E-02    0.446E-02
RMM:  16    -0.366239479574E+03    0.29023E-05   -0.11078E-05   791   0.860E-03    0.322E-02
RMM:  17    -0.366239489862E+03   -0.10289E-04   -0.12595E-05   797   0.896E-03    0.627E-02
RMM:  18    -0.366239478095E+03    0.11767E-04   -0.72378E-06   759   0.757E-03    0.218E-02
RMM:  19    -0.366239476968E+03    0.11270E-05   -0.23196E-06   432   0.416E-03    0.110E-02
RMM:  20    -0.366239477344E+03   -0.37609E-06   -0.12133E-06   410   0.319E-03
   3 F= -.38429907E+03 E0= -.38231584E+03  d E =-.396647E+01
       N       E                     dE             d eps       ncg     rms          rms(c)
DAV:   1    -0.366233895559E+03    0.55814E-02   -0.24406E+00   804   0.164E+00    0.358E-01
RMM:   2    -0.366252317388E+03   -0.18422E-01   -0.78002E-02   812   0.477E-01    0.169E+00
RMM:   3    -0.366240135554E+03    0.12182E-01   -0.79679E-03   808   0.219E-01    0.441E-01
RMM:   4    -0.366241707696E+03   -0.15721E-02   -0.16288E-03   815   0.100E-01    0.880E-01
RMM:   5    -0.366243248577E+03   -0.15409E-02   -0.10783E-03   812   0.850E-02    0.113E+00
RMM:   6    -0.366240576052E+03    0.26725E-02   -0.13200E-03   808   0.983E-02    0.575E-01
RMM:   7    -0.366241184466E+03   -0.60841E-03   -0.15487E-03   808   0.103E-01    0.702E-01
RMM:   8    -0.366243183361E+03   -0.19989E-02   -0.32432E-03   808   0.145E-01    0.971E-01
RMM:   9    -0.366239899831E+03    0.32835E-02   -0.23634E-03   808   0.134E-01    0.348E-01
RMM:  10    -0.366239534275E+03    0.36556E-03   -0.46678E-04   806   0.557E-02    0.174E-01
RMM:  11    -0.366239585782E+03   -0.51507E-04   -0.20058E-04   810   0.365E-02    0.207E-01
RMM:  12    -0.366239464697E+03    0.12108E-03   -0.11243E-04   807   0.287E-02    0.105E-01
RMM:  13    -0.366239430487E+03    0.34210E-04   -0.47553E-05   800   0.184E-02    0.485E-02
RMM:  14    -0.366239432365E+03   -0.18772E-05   -0.19741E-05   803   0.115E-02    0.591E-02
RMM:  15    -0.366239420845E+03    0.11520E-04   -0.95854E-06   769   0.864E-03    0.258E-02
RMM:  16    -0.366239420987E+03   -0.14275E-06   -0.41627E-06   591   0.539E-03
   4 F= -.38429902E+03 E0= -.38231568E+03  d E =-.396668E+01
       N       E                     dE             d eps       ncg     rms          rms(c)
DAV:   1    -0.366227317522E+03    0.12103E-01   -0.48668E+00   804   0.232E+00    0.512E-01
RMM:   2    -0.366265769001E+03   -0.38451E-01   -0.16728E-01   818   0.679E-01    0.243E+00
RMM:   3    -0.366241216314E+03    0.24553E-01   -0.16801E-02   808   0.317E-01    0.693E-01
RMM:   4    -0.366244913686E+03   -0.36974E-02   -0.30296E-03   815   0.135E-01    0.139E+00
RMM:   5    -0.366245811505E+03   -0.89782E-03   -0.24520E-03   811   0.127E-01    0.142E+00
RMM:   6    -0.366241699810E+03    0.41117E-02   -0.27817E-03   808   0.144E-01    0.796E-01
RMM:   7    -0.366242504200E+03   -0.80439E-03   -0.27164E-03   809   0.137E-01    0.914E-01
RMM:   8    -0.366246873492E+03   -0.43693E-02   -0.63461E-03   810   0.202E-01    0.136E+00
RMM:   9    -0.366240442496E+03    0.64310E-02   -0.47275E-03   807   0.189E-01    0.488E-01
RMM:  10    -0.366239860947E+03    0.58155E-03   -0.10666E-03   807   0.835E-02    0.313E-01
RMM:  11    -0.366239906441E+03   -0.45494E-04   -0.54059E-04   810   0.599E-02    0.327E-01
RMM:  12    -0.366239560056E+03    0.34639E-03   -0.28611E-04   809   0.465E-02    0.138E-01
RMM:  13    -0.366239517665E+03    0.42390E-04   -0.11118E-04   803   0.273E-02    0.916E-02
RMM:  14    -0.366239504810E+03    0.12855E-04   -0.47297E-05   806   0.182E-02    0.843E-02
RMM:  15    -0.366239482401E+03    0.22410E-04   -0.19450E-05   800   0.123E-02    0.406E-02
RMM:  16    -0.366239481955E+03    0.44557E-06   -0.91178E-06   775   0.769E-03
   5 F= -.38429908E+03 E0= -.38231576E+03  d E =-.396664E+01
       N       E                     dE             d eps       ncg     rms          rms(c)
DAV:   1    -0.366233282841E+03    0.61996E-02   -0.24103E+00   804   0.165E+00    0.397E-01
RMM:   2    -0.366258513504E+03   -0.25231E-01   -0.94064E-02   827   0.482E-01    0.219E+00
RMM:   3    -0.366246055694E+03    0.12458E-01   -0.66642E-03   809   0.204E-01    0.136E+00
RMM:   4    -0.366242185809E+03    0.38699E-02   -0.26272E-03   807   0.132E-01    0.796E-01
RMM:   5    -0.366245173608E+03   -0.29878E-02   -0.33376E-03   807   0.149E-01    0.121E+00
RMM:   6    -0.366242211858E+03    0.29618E-02   -0.26669E-03   807   0.145E-01    0.717E-01
RMM:   7    -0.366241564680E+03    0.64718E-03   -0.13298E-03   807   0.973E-02    0.569E-01
RMM:   8    -0.366245650932E+03   -0.40863E-02   -0.35961E-03   809   0.155E-01    0.121E+00
RMM:   9    -0.366241375581E+03    0.42754E-02   -0.26513E-03   809   0.143E-01    0.512E-01
RMM:  10    -0.366240457996E+03    0.91759E-03   -0.75723E-04   806   0.734E-02    0.155E-01
RMM:  11    -0.366240534224E+03   -0.76228E-04   -0.28162E-04   809   0.423E-02    0.206E-01
RMM:  12    -0.366240407781E+03    0.12644E-03   -0.13591E-04   808   0.320E-02    0.115E-01
RMM:  13    -0.366240376386E+03    0.31395E-04   -0.50387E-05   801   0.189E-02    0.682E-02
RMM:  14    -0.366240390774E+03   -0.14388E-04   -0.30852E-05   803   0.144E-02    0.911E-02
RMM:  15    -0.366240364181E+03    0.26592E-04   -0.19264E-05   805   0.122E-02    0.297E-02
RMM:  16    -0.366240363278E+03    0.90322E-06   -0.57088E-06   696   0.634E-03
   6 F= -.38429964E+03 E0= -.38231564E+03  d E =-.396800E+01
       N       E                     dE             d eps       ncg     rms          rms(c)
DAV:   1    -0.366224399018E+03    0.15965E-01   -0.48525E+00   804   0.226E+00    0.558E-01
RMM:   2    -0.366274258851E+03   -0.49860E-01   -0.17946E-01   846   0.608E-01    0.312E+00
RMM:   3    -0.366246831119E+03    0.27428E-01   -0.96732E-03   810   0.240E-01    0.168E+00
RMM:   4    -0.366241403163E+03    0.54280E-02   -0.37703E-03   808   0.159E-01    0.112E+00
RMM:   5    -0.366251960077E+03   -0.10557E-01   -0.82084E-03   809   0.228E-01    0.206E+00
RMM:   6    -0.366242646833E+03    0.93132E-02   -0.70840E-03   808   0.235E-01    0.115E+00
RMM:   7    -0.366242620819E+03    0.26014E-04   -0.52529E-03   807   0.185E-01    0.112E+00
RMM:   8    -0.366245121185E+03   -0.25004E-02   -0.72641E-03   806   0.220E-01    0.134E+00
RMM:   9    -0.366239154359E+03    0.59668E-02   -0.48023E-03   806   0.189E-01    0.598E-01
RMM:  10    -0.366238185494E+03    0.96887E-03   -0.12866E-03   808   0.918E-02    0.309E-01
RMM:  11    -0.366238126089E+03    0.59404E-04   -0.64651E-04   810   0.620E-02    0.292E-01
RMM:  12    -0.366237834128E+03    0.29196E-03   -0.27868E-04   807   0.456E-02    0.120E-01
RMM:  13    -0.366237816643E+03    0.17485E-04   -0.88244E-05   804   0.238E-02    0.100E-01
RMM:  14    -0.366237859781E+03   -0.43138E-04   -0.67600E-05   803   0.214E-02    0.147E-01
RMM:  15    -0.366237786873E+03    0.72908E-04   -0.47846E-05   802   0.191E-02    0.442E-02
RMM:  16    -0.366237793169E+03   -0.62961E-05   -0.20317E-05   795   0.114E-02    0.578E-02
RMM:  17    -0.366237807836E+03   -0.14668E-04   -0.18355E-05   803   0.112E-02    0.821E-02
RMM:  18    -0.366237788325E+03    0.19511E-04   -0.12396E-05   790   0.979E-03    0.191E-02
RMM:  19    -0.366237788748E+03   -0.42291E-06   -0.35933E-06   539   0.499E-03
   7 F= -.38429770E+03 E0= -.38231520E+03  d E =-.396501E+01
