 vasp.5.4.4.18Apr17-6-g9f103f2a35 (build Dec 15 2018 21:27:54) gamma-only       
  
 executed on             LinuxIFC date 2022.03.01  01:53:51
 running on   72 total cores
 distrk:  each k-point on   72 cores,    1 groups
 distr:  one band on NCORES_PER_BAND=  24 cores,    3 groups


--------------------------------------------------------------------------------------------------------


 INCAR:
 POTCAR:    PAW_PBE Ni 02Aug2007                  
 POTCAR:    PAW_PBE O 08Apr2002                   

 ----------------------------------------------------------------------------- 
|                                                                             |
|           W    W    AA    RRRRR   N    N  II  N    N   GGGG   !!!           |
|           W    W   A  A   R    R  NN   N  II  NN   N  G    G  !!!           |
|           W    W  A    A  R    R  N N  N  II  N N  N  G       !!!           |
|           W WW W  AAAAAA  RRRRR   N  N N  II  N  N N  G  GGG   !            |
|           WW  WW  A    A  R   R   N   NN  II  N   NN  G    G                |
|           W    W  A    A  R    R  N    N  II  N    N   GGGG   !!!           |
|                                                                             |
|      For optimal performance we recommend to set                            |
|        NCORE= 4 - approx SQRT( number of cores)                             |
|      NCORE specifies how many cores store one orbital (NPAR=cpu/NCORE).     |
|      This setting can  greatly improve the performance of VASP for DFT.     |
|      The default,   NCORE=1            might be grossly inefficient         |
|      on modern multi-core architectures or massively parallel machines.     |
|      Do your own testing !!!!                                               |
|      Unfortunately you need to use the default for GW and RPA calculations. |
|      (for HF NCORE is supported but not extensively tested yet)             |
|                                                                             |
 ----------------------------------------------------------------------------- 

 POTCAR:    PAW_PBE Ni 02Aug2007                  
   VRHFIN =Ni:                                                                  
   LEXCH  = PE                                                                  
   EATOM  =  1077.6739 eV,   79.2068 Ry                                         
                                                                                
   TITEL  = PAW_PBE Ni 02Aug2007                                                
   LULTRA =        F    use ultrasoft PP ?                                      
   IUNSCR =        1    unscreen: 0-lin 1-nonlin 2-no                           
   RPACOR =    2.000    partial core radius                                     
   POMASS =   58.690; ZVAL   =   10.000    mass and valenz                      
   RCORE  =    2.300    outmost cutoff radius                                   
   RWIGS  =    2.430; RWIGS  =    1.286    wigner-seitz radius (au A)           
   ENMAX  =  269.532; ENMIN  =  202.149 eV                                      
   RCLOC  =    1.201    cutoff for local pot                                    
   LCOR   =        T    correct aug charges                                     
   LPAW   =        T    paw PP                                                  
   EAUG   =  544.565                                                            
   DEXC   =    0.000                                                            
   RMAX   =    2.357    core radius for proj-oper                               
   RAUG   =    1.300    factor for augmentation sphere                          
   RDEP   =    2.390    radius for radial grids                                 
   RDEPT  =    1.838    core radius for aug-charge                              
                                                                                
   Atomic configuration                                                         
    9 entries                                                                   
     n  l   j            E        occ.                                          
     1  0  0.50     -8206.4253   2.0000                                         
     2  0  0.50      -976.1748   2.0000                                         
     2  1  1.50      -839.0571   6.0000                                         
     3  0  0.50      -105.9991   2.0000                                         
     3  1  1.50       -66.4603   6.0000                                         
     3  2  2.50        -4.6458   9.0000                                         
     4  0  0.50        -4.4926   1.0000                                         
     4  1  1.50        -4.0817   0.0000                                         
     4  3  2.50        -1.3606   0.0000                                         
   Description                                                                  
     l       E           TYP  RCUT    TYP  RCUT                                 
     2     -4.6457903     23  2.300                                             
     2     -6.0063729     23  2.300                                             
     0     -4.4925590     23  2.300                                             
     0      5.0102601     23  2.300                                             
     1     -2.7211652     23  2.300                                             
     1     16.5183231     23  2.300                                             
  local pseudopotential read in
  partial core-charges read in
  partial kinetic energy density read in
  atomic valenz-charges read in
  non local Contribution for L=           2  read in
    real space projection operators read in
  non local Contribution for L=           2  read in
    real space projection operators read in
  non local Contribution for L=           0  read in
    real space projection operators read in
  non local Contribution for L=           0  read in
    real space projection operators read in
  non local Contribution for L=           1  read in
    real space projection operators read in
  non local Contribution for L=           1  read in
    real space projection operators read in
    PAW grid and wavefunctions read in
 
   number of l-projection  operators is LMAX  =           6
   number of lm-projection operators is LMMAX =          18
 
 POTCAR:    PAW_PBE O 08Apr2002                   
   VRHFIN =O: s2p4                                                              
   LEXCH  = PE                                                                  
   EATOM  =   432.3788 eV,   31.7789 Ry                                         
                                                                                
   TITEL  = PAW_PBE O 08Apr2002                                                 
   LULTRA =        F    use ultrasoft PP ?                                      
   IUNSCR =        1    unscreen: 0-lin 1-nonlin 2-no                           
   RPACOR =    1.200    partial core radius                                     
   POMASS =   16.000; ZVAL   =    6.000    mass and valenz                      
   RCORE  =    1.520    outmost cutoff radius                                   
   RWIGS  =    1.550; RWIGS  =    0.820    wigner-seitz radius (au A)           
   ENMAX  =  400.000; ENMIN  =  300.000 eV                                      
   ICORE  =        2    local potential                                         
   LCOR   =        T    correct aug charges                                     
   LPAW   =        T    paw PP                                                  
   EAUG   =  605.392                                                            
   DEXC   =    0.000                                                            
   RMAX   =    1.553    core radius for proj-oper                               
   RAUG   =    1.300    factor for augmentation sphere                          
   RDEP   =    1.550    radius for radial grids                                 
   RDEPT  =    1.329    core radius for aug-charge                              
                                                                                
   Atomic configuration                                                         
    4 entries                                                                   
     n  l   j            E        occ.                                          
     1  0  0.50      -514.6923   2.0000                                         
     2  0  0.50       -23.9615   2.0000                                         
     2  1  0.50        -9.0305   4.0000                                         
     3  2  1.50        -9.5241   0.0000                                         
   Description                                                                  
     l       E           TYP  RCUT    TYP  RCUT                                 
     0    -23.9615318     23  1.200                                             
     0     -9.5240782     23  1.200                                             
     1     -9.0304911     23  1.520                                             
     1      8.1634956     23  1.520                                             
     2     -9.5240782      7  1.500                                             
  local pseudopotential read in
  partial core-charges read in
  partial kinetic energy density read in
  kinetic energy density of atom read in
  atomic valenz-charges read in
  non local Contribution for L=           0  read in
    real space projection operators read in
  non local Contribution for L=           0  read in
    real space projection operators read in
  non local Contribution for L=           1  read in
    real space projection operators read in
  non local Contribution for L=           1  read in
    real space projection operators read in
    PAW grid and wavefunctions read in
 
   number of l-projection  operators is LMAX  =           4
   number of lm-projection operators is LMMAX =           8
 
 Optimization of the real space projectors (new method)

 maximal supplied QI-value         = 16.25
 optimisation between [QCUT,QGAM] = [ 11.54, 23.24] = [ 37.28,151.24] Ry 
 Optimized for a Real-space Cutoff    1.45 Angstroem

   l    n(q)    QCUT    max X(q) W(low)/X(q) W(high)/X(q)  e(spline) 
   2      9    11.539    60.317    0.19E-03    0.47E-04    0.16E-06
   2      9    11.539    55.921    0.19E-03    0.48E-04    0.16E-06
   0     10    11.539    51.690    0.80E-04    0.50E-04    0.24E-06
   0     10    11.539    30.015    0.73E-04    0.45E-04    0.22E-06
   1     10    11.539    18.849    0.87E-04    0.16E-03    0.71E-07
   1     10    11.539    14.624    0.73E-04    0.13E-03    0.64E-07
 Optimization of the real space projectors (new method)

 maximal supplied QI-value         = 24.76
 optimisation between [QCUT,QGAM] = [ 11.64, 23.27] = [ 37.91,151.63] Ry 
 Optimized for a Real-space Cutoff    1.14 Angstroem

   l    n(q)    QCUT    max X(q) W(low)/X(q) W(high)/X(q)  e(spline) 
   0      8    11.635    20.381    0.10E-03    0.33E-03    0.24E-06
   0      8    11.635    15.268    0.11E-03    0.35E-03    0.26E-06
   1      7    11.635     5.964    0.24E-03    0.31E-03    0.30E-06
   1      7    11.635     5.382    0.22E-03    0.25E-03    0.26E-06
  PAW_PBE Ni 02Aug2007                  :
 energy of atom  1       EATOM=-1077.6739
 kinetic energy error for atom=    0.0030 (will be added to EATOM!!)
  PAW_PBE O 08Apr2002                   :
 energy of atom  2       EATOM= -432.3788
 kinetic energy error for atom=    0.0208 (will be added to EATOM!!)
 
 
 POSCAR: POSCAR                                  
  positions in direct lattice
  velocities in cartesian coordinates
 exchange correlation table for  LEXCH =        8
   RHO(1)=    0.500       N(1)  =     2000
   RHO(2)=  100.500       N(2)  =     4000

 VTST: version 3.2, (02/03/18)

 CHAIN: initializing optimizer
 
 OPT: Using VASP Dynamics algorithm
 CHAIN: Read ICHAIN            0
 
 POSCAR: POSCAR                                  
  positions in direct lattice
  velocities in cartesian coordinates
 


--------------------------------------------------------------------------------------------------------


 ion  position               nearest neighbor table
   1  0.113  0.226  0.095-  15 2.49  19 2.49   3 2.49   5 2.49  13 2.49  17 2.49  21 2.49  49 2.49
                            61 2.49
   2  0.109  0.227  0.382-  65 1.82  14 2.40  18 2.43  20 2.45  62 2.48  22 2.51  24 2.51   4 2.51
                             6 2.53  50 2.56
   3  0.196  0.142  0.191-   4 2.44   8 2.45  24 2.45   5 2.49  49 2.49   1 2.49   7 2.49  15 2.49
                            19 2.49  23 2.49  51 2.49  63 2.49
   4  0.030  0.059  0.285-  62 2.43   3 2.44  15 2.44  63 2.44   8 2.49  24 2.49  52 2.50  20 2.50
                            64 2.50  16 2.50  50 2.51   2 2.51
   5  0.363  0.226  0.095-   3 2.49  23 2.49   7 2.49   9 2.49   1 2.49  21 2.49  25 2.49  49 2.49
                            53 2.49
   6  0.360  0.225  0.390-  69 1.82  65 1.85  10 2.52  50 2.53   2 2.53  22 2.53  26 2.53  54 2.53
                            28 2.60  24 2.61   8 2.62
   7  0.446  0.142  0.191-  12 2.45   8 2.46   9 2.49  53 2.49   5 2.49   3 2.49  11 2.49  27 2.49
                            51 2.49  23 2.49  55 2.49  28 2.50
   8  0.280  0.060  0.286-  54 2.41   3 2.45   7 2.46  51 2.46  24 2.47  28 2.48   4 2.49  12 2.50
                            52 2.50  56 2.50  50 2.51   6 2.62
   9  0.613  0.226  0.095-   7 2.49  27 2.49  11 2.49  13 2.49   5 2.49  25 2.49  29 2.49  53 2.49
                            57 2.49
  10  0.614  0.225  0.389-  69 1.82  68 1.85   6 2.52  26 2.52  54 2.53  30 2.53  58 2.53  14 2.53
                            28 2.59  32 2.61  12 2.61
  11  0.696  0.142  0.191-  16 2.44  12 2.45  32 2.45  13 2.49  57 2.49   9 2.49  15 2.49   7 2.49
                            27 2.49  55 2.49  31 2.49  59 2.49
  12  0.530  0.060  0.286-  54 2.42  11 2.45   7 2.45  55 2.46  32 2.47  28 2.49  16 2.49   8 2.50
                            60 2.50  56 2.50  58 2.51  10 2.61
  13  0.863  0.226  0.095-  11 2.49  31 2.49  15 2.49   9 2.49   1 2.49  29 2.49  17 2.49  57 2.49
                            61 2.49
  14  0.868  0.227  0.382-  68 1.82   2 2.40  18 2.43  20 2.45  62 2.48  30 2.50  32 2.51  16 2.51
                            10 2.53  58 2.56
  15  0.946  0.142  0.191-   4 2.44  16 2.44  20 2.47   1 2.49  61 2.49  13 2.49   3 2.49  11 2.49
                            31 2.49  59 2.49  19 2.49  63 2.49
  16  0.779  0.059  0.285-  62 2.42  11 2.44  15 2.44  59 2.44  32 2.49  12 2.49  60 2.50  20 2.50
                             4 2.50  64 2.50  58 2.51  14 2.51
  17  0.113  0.476  0.095-  31 2.49  35 2.49  19 2.49  21 2.49  29 2.49  13 2.49  33 2.49   1 2.49
                            37 2.49
  18  0.111  0.473  0.383-  67 1.84   2 2.43  14 2.43  20 2.47  22 2.48  30 2.48  36 2.53  40 2.53
                            34 2.54  38 2.54
  19  0.196  0.392  0.191-  40 2.44  24 2.46  20 2.47  21 2.49   1 2.49  17 2.49  31 2.49  23 2.49
                            15 2.49  35 2.49  39 2.49   3 2.49
  20  0.030  0.310  0.286-   2 2.45  14 2.45  31 2.47  18 2.47  19 2.47  15 2.47  36 2.49  40 2.49
                            16 2.50   4 2.50  24 2.50  32 2.50
  21  0.363  0.476  0.095-  19 2.49  39 2.49  23 2.49  25 2.49  17 2.49   5 2.49  37 2.49   1 2.49
                            41 2.49
  22  0.361  0.477  0.377-  40 2.41  44 2.42  24 2.42  18 2.48  38 2.48   2 2.51  42 2.51   6 2.53
                            26 2.53
  23  0.446  0.392  0.191-  24 2.46  44 2.46  25 2.49   5 2.49  21 2.49  27 2.49  19 2.49   3 2.49
                            39 2.49  43 2.49   7 2.49  28 2.49
  24  0.280  0.308  0.286-  22 2.42   3 2.45  23 2.46  19 2.46   8 2.47  28 2.48   4 2.49  20 2.50
                            44 2.50  40 2.50   2 2.51   6 2.61
  25  0.613  0.476  0.095-  23 2.49  43 2.49  27 2.49  29 2.49  21 2.49   9 2.49  41 2.49   5 2.49
                            45 2.49
  26  0.614  0.478  0.390-  69 1.82  66 1.85  10 2.52  46 2.53  42 2.53  22 2.53   6 2.53  30 2.53
                            28 2.60  44 2.61  48 2.62
  27  0.696  0.392  0.191-  32 2.45  48 2.46  29 2.49   9 2.49  25 2.49  23 2.49  31 2.49   7 2.49
                            43 2.49  47 2.49  11 2.49  28 2.50
  28  0.529  0.309  0.288-  44 2.48  24 2.48   8 2.48  48 2.48  12 2.49  32 2.49  23 2.49  27 2.50
                             7 2.50  10 2.59   6 2.60  26 2.60
  29  0.863  0.476  0.095-  27 2.49  47 2.49  31 2.49  25 2.49  17 2.49  13 2.49  33 2.49  45 2.49
                             9 2.49
  30  0.865  0.477  0.377-  36 2.41  48 2.41  32 2.42  34 2.48  18 2.48  14 2.50  46 2.51  10 2.53
                            26 2.53
  31  0.946  0.392  0.191-  36 2.44  32 2.46  20 2.47  17 2.49  13 2.49  29 2.49  27 2.49  19 2.49
                            15 2.49  35 2.49  11 2.49  47 2.49
  32  0.778  0.308  0.286-  30 2.42  11 2.45  27 2.45  31 2.46  12 2.47  28 2.49  16 2.49  48 2.50
                            20 2.50  36 2.50  14 2.51  10 2.61
  33  0.113  0.726  0.095-  47 2.49  51 2.49  35 2.49  37 2.49  45 2.49  29 2.49  49 2.49  17 2.49
                            53 2.49
  34  0.111  0.728  0.383-  67 1.84  46 2.43  50 2.43  52 2.47  54 2.47  30 2.48  56 2.53  36 2.53
                            18 2.54  38 2.54
  35  0.196  0.642  0.191-  40 2.44  36 2.44  56 2.44  37 2.49  17 2.49  33 2.49  47 2.49  39 2.49
                            31 2.49  51 2.49  55 2.49  19 2.49
  36  0.029  0.559  0.285-  30 2.41  47 2.44  35 2.44  31 2.44  20 2.49  52 2.49  40 2.49  56 2.49
                            32 2.50  48 2.50  18 2.53  34 2.53
  37  0.363  0.726  0.095-  35 2.49  55 2.49  39 2.49  41 2.49  33 2.49  21 2.49  53 2.49  17 2.49
                            57 2.49
  38  0.366  0.728  0.383-  67 1.84  42 2.43  58 2.43  60 2.47  22 2.48  54 2.48  56 2.53  40 2.53
                            34 2.54  18 2.54
  39  0.446  0.642  0.191-  40 2.44  44 2.46  60 2.47  41 2.49  21 2.49  37 2.49  35 2.49  43 2.49
                            23 2.49  55 2.49  59 2.49  19 2.49
  40  0.279  0.559  0.285-  22 2.41  35 2.44  39 2.44  19 2.44  20 2.49  60 2.49  36 2.49  56 2.49
                            44 2.50  24 2.50  18 2.53  38 2.53
  41  0.613  0.726  0.095-  39 2.49  59 2.49  43 2.49  45 2.49  37 2.49  25 2.49  57 2.49  21 2.49
                            61 2.49
  42  0.611  0.730  0.382-  66 1.82  58 2.40  38 2.43  60 2.45  62 2.48  22 2.51  44 2.51  64 2.51
                            26 2.53  46 2.56
  43  0.696  0.642  0.191-  64 2.44  48 2.45  44 2.45  45 2.49  25 2.49  41 2.49  39 2.49  47 2.49
                            27 2.49  59 2.49  63 2.49  23 2.49
  44  0.530  0.559  0.286-  22 2.42  43 2.45  23 2.46  39 2.46  48 2.47  28 2.48  64 2.49  60 2.50
                            24 2.50  40 2.50  42 2.51  26 2.61
  45  0.863  0.726  0.095-  43 2.49  63 2.49  47 2.49  41 2.49  33 2.49  29 2.49  49 2.49  61 2.49
                            25 2.49
  46  0.868  0.730  0.382-  66 1.82  50 2.40  34 2.43  52 2.45  62 2.48  30 2.51  48 2.51  64 2.51
                            26 2.53  42 2.56
  47  0.946  0.642  0.191-  36 2.44  48 2.46  52 2.47  33 2.49  29 2.49  45 2.49  43 2.49  35 2.49
                            31 2.49  51 2.49  27 2.49  63 2.49
  48  0.778  0.559  0.286-  30 2.41  43 2.45  27 2.46  47 2.46  44 2.47  28 2.48  64 2.49  32 2.50
                            52 2.50  36 2.50  46 2.51  26 2.62
  49  0.113  0.976  0.095-  63 2.49   3 2.49  51 2.49  61 2.49  53 2.49   1 2.49   5 2.49  33 2.49
                            45 2.49
  50  0.109  0.971  0.382-  65 1.82  46 2.40  34 2.43  52 2.45  62 2.48  54 2.51   8 2.51   4 2.51
                             6 2.53   2 2.56
  51  0.196  0.892  0.191-  56 2.44   8 2.46  52 2.47  53 2.49  33 2.49  49 2.49  55 2.49  63 2.49
                            35 2.49  47 2.49   3 2.49   7 2.49
  52  0.030  0.809  0.286-  46 2.45  50 2.45  34 2.47  51 2.47  47 2.47  63 2.47  56 2.49  36 2.49
                             4 2.50  64 2.50   8 2.50  48 2.50
  53  0.363  0.976  0.095-  51 2.49   7 2.49  55 2.49  49 2.49  57 2.49   5 2.49   9 2.49  33 2.49
                            37 2.49
  54  0.361  0.973  0.377-  56 2.41   8 2.41  12 2.42  34 2.47  38 2.48  58 2.50  50 2.51  10 2.53
                             6 2.53
  55  0.446  0.892  0.191-  56 2.44  12 2.46  60 2.47  57 2.49  37 2.49  53 2.49  59 2.49  51 2.49
                            11 2.49  39 2.49   7 2.49  35 2.49
  56  0.279  0.809  0.285-  54 2.41  51 2.44  55 2.44  35 2.44  60 2.49  52 2.49  36 2.49  40 2.49
                            12 2.50   8 2.50  38 2.53  34 2.53
  57  0.613  0.976  0.095-  55 2.49  11 2.49  59 2.49  53 2.49  61 2.49   9 2.49  13 2.49  37 2.49
                            41 2.49
  58  0.611  0.971  0.382-  68 1.82  42 2.40  38 2.43  60 2.45  62 2.48  54 2.50  12 2.51  16 2.51
                            10 2.53  14 2.56
  59  0.696  0.892  0.191-  64 2.44  16 2.44  60 2.47  61 2.49  41 2.49  57 2.49  63 2.49  55 2.49
                            15 2.49  43 2.49  11 2.49  39 2.49
  60  0.529  0.809  0.286-  42 2.45  58 2.45  55 2.47  38 2.47  39 2.47  59 2.47  56 2.49  40 2.49
                            16 2.50  64 2.50  44 2.50  12 2.50
  61  0.863  0.976  0.095-  59 2.49  15 2.49  63 2.49  49 2.49  57 2.49  13 2.49   1 2.49  41 2.49
                            45 2.49
  62  0.863  0.976  0.377-  16 2.42   4 2.43  64 2.43  42 2.48   2 2.48  46 2.48  58 2.48  14 2.48
                            50 2.48
  63  0.946  0.892  0.191-  64 2.44   4 2.44  52 2.47  49 2.49  45 2.49  61 2.49  51 2.49  59 2.49
                             3 2.49  47 2.49  15 2.49  43 2.49
  64  0.779  0.809  0.285-  62 2.43  43 2.44  59 2.44  63 2.44  48 2.49  44 2.49  52 2.50  60 2.50
                             4 2.50  16 2.50  46 2.51  42 2.51
  65  0.179  0.134  0.436-   2 1.82  50 1.82   6 1.85
  66  0.705  0.660  0.436-  42 1.82  46 1.82  26 1.85
  67  0.196  0.643  0.435-  18 1.84  34 1.84  38 1.84
  68  0.704  0.135  0.436-  14 1.82  58 1.82  10 1.85
  69  0.529  0.309  0.441-  26 1.82   6 1.82  10 1.82
 

IMPORTANT INFORMATION: All symmetrisations will be switched off!
NOSYMM: (Re-)initialisation of all symmetry stuff for point group C_1.

 
 

Automatic generation of k-mesh.
 generate k-points for:    1    1    1
Space group operators:
 irot       det(A)        alpha          n_x          n_y          n_z        tau_x        tau_y        tau_z
    1     1.000000     0.000000     1.000000     0.000000     0.000000     0.000000     0.000000     0.000000
 
 Subroutine IBZKPT returns following result:
 ===========================================
 
 Found      1 irreducible k-points:
 
 Following reciprocal coordinates:
            Coordinates               Weight
  0.000000  0.000000  0.000000      1.000000
 
 Following cartesian coordinates:
            Coordinates               Weight
  0.000000  0.000000  0.000000      1.000000
 
 
 Subroutine IBZKPT_HF returns following result:
 ==============================================
 
 Found      1 k-points in 1st BZ
 the following      1 k-points will be used (e.g. in the exchange kernel)
 Following reciprocal coordinates:   # in IRBZ
  0.000000  0.000000  0.000000    1.00000000   1 t-inv F


--------------------------------------------------------------------------------------------------------




 Dimension of arrays:
   k-points           NKPTS =      1   k-points in BZ     NKDIM =      1   number of bands    NBANDS=    402
   number of dos      NEDOS =    301   number of ions     NIONS =     69
   non local maximal  LDIM  =      6   non local SUM 2l+1 LMDIM =     18
   total plane-waves  NPLWV = ******
   max r-space proj   IRMAX =   7188   max aug-charges    IRDMAX=  18478
   dimension x,y,z NGX =    80 NGY =   80 NGZ =  160
   dimension x,y,z NGXF=   160 NGYF=  160 NGZF=  320
   support grid    NGXF=   160 NGYF=  160 NGZF=  320
   ions per type =              64   5
   NGX,Y,Z   is equivalent  to a cutoff of  13.34, 13.34, 12.60 a.u.
   NGXF,Y,Z  is equivalent  to a cutoff of  26.69, 26.69, 25.21 a.u.

 SYSTEM =  SQS-NiFe                                
 POSCAR =  POSCAR                                  

 Startparameter for this run:
   NWRITE =      2    write-flag & timer
   PREC   = accura    normal or accurate (medium, high low for compatibility)
   ISTART =      0    job   : 0-new  1-cont  2-samecut
   ICHARG =      1    charge: 1-file 2-atom 10-const
   ISPIN  =      1    spin polarized calculation?
   LNONCOLLINEAR =      F non collinear calculations
   LSORBIT =      F    spin-orbit coupling
   INIWAV =      1    electr: 0-lowe 1-rand  2-diag
   LASPH  =      F    aspherical Exc in radial PAW
   METAGGA=      F    non-selfconsistent MetaGGA calc.

 Electronic Relaxation 1
   ENCUT  =  520.0 eV  38.22 Ry    6.18 a.u.  18.53 18.53 39.24*2*pi/ulx,y,z
   ENINI  =  520.0     initial cutoff
   ENAUG  =  605.4 eV  augmentation charge cutoff
   NELM   =    200;   NELMIN=  2; NELMDL= -5     # of ELM steps 
   EDIFF  = 0.1E-05   stopping-criterion for ELM
   LREAL  =      T    real-space projection
   NLSPLINE    = F    spline interpolate recip. space projectors
   LCOMPAT=      F    compatible to vasp.4.4
   GGA_COMPAT  = T    GGA compatible to vasp.4.4-vasp.4.6
   LMAXPAW     = -100 max onsite density
   LMAXMIX     =    2 max onsite mixed and CHGCAR
   VOSKOWN=      0    Vosko Wilk Nusair interpolation
   ROPT   =   -0.00025  -0.00025
 Ionic relaxation
   EDIFFG = -.2E-01   stopping-criterion for IOM
   NSW    =    865    number of steps for IOM
   NBLOCK =      1;   KBLOCK =    865    inner block; outer block 
   IBRION =      5    ionic relax: 0-MD 1-quasi-New 2-CG
   NFREE  =      2    steps in history (QN), initial steepest desc. (CG)
   ISIF   =      2    stress and relaxation
   IWAVPR =     11    prediction:  0-non 1-charg 2-wave 3-comb
   ISYM   =      0    0-nonsym 1-usesym 2-fastsym
   LCORR  =      T    Harris-Foulkes like correction to forces

   POTIM  = 0.0150    time-step for ionic-motion
   TEIN   =    0.0    initial temperature
   TEBEG  =    0.0;   TEEND  =   0.0 temperature during run
   SMASS  =  -3.00    Nose mass-parameter (am)
   estimated Nose-frequenzy (Omega)   =  0.10E-29 period in steps =****** mass=  -0.227E-26a.u.
   SCALEE = 1.0000    scale energy and forces
   NPACO  =    256;   APACO  = 16.0  distance and # of slots for P.C.
   PSTRESS=    0.0 pullay stress

  Mass of Ions in am
   POMASS =  58.69 16.00
  Ionic Valenz
   ZVAL   =  10.00  6.00
  Atomic Wigner-Seitz radii
   RWIGS  =  -1.00 -1.00
  virtual crystal weights 
   VCA    =   1.00  1.00
   NELECT =     670.0000    total number of electrons
   NUPDOWN=      -1.0000    fix difference up-down

 DOS related values:
   EMIN   =  10.00;   EMAX   =-10.00  energy-range for DOS
   EFERMI =   0.00
   ISMEAR =     0;   SIGMA  =   0.20  broadening in eV -4-tet -1-fermi 0-gaus

 Electronic relaxation 2 (details)
   IALGO  =     68    algorithm
   LDIAG  =      T    sub-space diagonalisation (order eigenvalues)
   LSUBROT=      F    optimize rotation matrix (better conditioning)
   TURBO    =      0    0=normal 1=particle mesh
   IRESTART =      0    0=no restart 2=restart with 2 vectors
   NREBOOT  =      0    no. of reboots
   NMIN     =      0    reboot dimension
   EREF     =   0.00    reference energy to select bands
   IMIX   =      4    mixing-type and parameters
     AMIX     =   0.40;   BMIX     =  1.00
     AMIX_MAG =   1.60;   BMIX_MAG =  1.00
     AMIN     =   0.10
     WC   =   100.;   INIMIX=   1;  MIXPRE=   1;  MAXMIX= -45

 Intra band minimization:
   WEIMIN = 0.0010     energy-eigenvalue tresh-hold
   EBREAK =  0.62E-09  absolut break condition
   DEPER  =   0.30     relativ break condition  

   TIME   =   0.40     timestep for ELM

  volume/ion in A,a.u.               =      26.31       177.58
  Fermi-wavevector in a.u.,A,eV,Ry     =   1.174219  2.218952 18.759571  1.378790
  Thomas-Fermi vector in A             =   2.310619
 
 Write flags
   LWAVE        =      F    write WAVECAR
   LDOWNSAMPLE  =      F    k-point downsampling of WAVECAR
   LCHARG       =      F    write CHGCAR
   LVTOT        =      F    write LOCPOT, total local potential
   LVHAR        =      F    write LOCPOT, Hartree potential only
   LELF         =      F    write electronic localiz. function (ELF)
   LORBIT       =     10    0 simple, 1 ext, 2 COOP (PROOUT), +10 PAW based schemes


 Dipole corrections
   LMONO  =      F    monopole corrections only (constant potential shift)
   LDIPOL =      F    correct potential (dipole corrections)
   IDIPOL =      0    1-x, 2-y, 3-z, 4-all directions 
   EPSILON=  1.0000000 bulk dielectric constant

 Exchange correlation treatment:
   GGA     =    --    GGA type
   LEXCH   =     8    internal setting for exchange type
   VOSKOWN=      0    Vosko Wilk Nusair interpolation
   LHFCALC =     F    Hartree Fock is set to
   LHFONE  =     F    Hartree Fock one center treatment
   AEXX    =    0.0000 exact exchange contribution

 Linear response parameters
   LEPSILON=     F    determine dielectric tensor
   LRPA    =     F    only Hartree local field effects (RPA)
   LNABLA  =     F    use nabla operator in PAW spheres
   LVEL    =     F    velocity operator in full k-point grid
   LINTERFAST=   F  fast interpolation
   KINTER  =     0    interpolate to denser k-point grid
   CSHIFT  =0.1000    complex shift for real part using Kramers Kronig
   OMEGAMAX=  -1.0    maximum frequency
   DEG_THRESHOLD= 0.2000000E-02 threshold for treating states as degnerate
   RTIME   =   -0.100 relaxation time in fs
  (WPLASMAI=    0.000 imaginary part of plasma frequency in eV, 0.658/RTIME)
   DFIELD  = 0.0000000 0.0000000 0.0000000 field for delta impulse in time
 
 Orbital magnetization related:
   ORBITALMAG=     F  switch on orbital magnetization
   LCHIMAG   =     F  perturbation theory with respect to B field
   DQ        =  0.001000  dq finite difference perturbation B field
   LLRAUG    =     F  two centre corrections for induced B field



--------------------------------------------------------------------------------------------------------


 finite differences
   using selective dynamics as specified on POSCAR
 charge density and potential will be updated during run
 non-spin polarized calculation
 RMM-DIIS sequential band-by-band and
  variant of blocked Davidson during initial phase
 perform sub-space diagonalisation
    before iterative eigenvector-optimisation
 modified Broyden-mixing scheme, WC =      100.0
 initial mixing is a Kerker type mixing with AMIX =  0.4000 and BMIX =      1.0000
 Hartree-type preconditioning will be used
 using additional bands           67
 real space projection scheme for non local part
 use partial core corrections
 calculate Harris-corrections to forces 
   (improved forces if not selfconsistent)
 use gradient corrections 
 use of overlap-Matrix (Vanderbilt PP)
 Gauss-broadening in eV      SIGMA  =   0.20


--------------------------------------------------------------------------------------------------------


  energy-cutoff  :      520.00
  volume of cell :     1815.73
      direct lattice vectors                 reciprocal lattice vectors
     9.967380000  0.000000000  0.000000000     0.100327268  0.057923975  0.000000000
    -4.983690000  8.632004290  0.000000000     0.000000000  0.115847950  0.000000000
     0.000000000  0.000000000 21.103750000     0.000000000  0.000000000  0.047384943

  length of vectors
     9.967380000  9.967380001 21.103750000     0.115847950  0.115847950  0.047384943


 
 k-points in units of 2pi/SCALE and weight: read from INCAR                         
   0.00000000  0.00000000  0.00000000       1.000
 
 k-points in reciprocal lattice and weights: read from INCAR                         
   0.00000000  0.00000000  0.00000000       1.000
 
 position of ions in fractional coordinates (direct lattice) 
   0.11283300  0.22566700  0.09477000
   0.10876954  0.22728573  0.38182296
   0.19616700  0.14233300  0.19117800
   0.02976055  0.05927004  0.28454154
   0.36283300  0.22566700  0.09477000
   0.36032792  0.22480540  0.38977708
   0.44616700  0.14233300  0.19117800
   0.27967082  0.06040663  0.28558066
   0.61283300  0.22566700  0.09477000
   0.61354347  0.22502201  0.38946268
   0.69616700  0.14233300  0.19117800
   0.53038924  0.06040391  0.28554271
   0.86283300  0.22566700  0.09477000
   0.86776452  0.22740689  0.38179204
   0.94616700  0.14233300  0.19117800
   0.77922929  0.05930131  0.28453734
   0.11283300  0.47566700  0.09477000
   0.11101503  0.47254114  0.38250616
   0.19616700  0.39233300  0.19117800
   0.02966137  0.30964358  0.28634677
   0.36283300  0.47566700  0.09477000
   0.36135228  0.47721846  0.37679931
   0.44616700  0.39233300  0.19117800
   0.27964336  0.30809851  0.28560563
   0.61283300  0.47566700  0.09477000
   0.61380017  0.47830033  0.38975789
   0.69616700  0.39233300  0.19117800
   0.52936300  0.30917726  0.28777677
   0.86283300  0.47566700  0.09477000
   0.86534834  0.47727266  0.37675757
   0.94616700  0.39233300  0.19117800
   0.77813399  0.30814030  0.28554302
   0.11283300  0.72566700  0.09477000
   0.11103934  0.72754484  0.38251022
   0.19616700  0.64233300  0.19117800
   0.02944297  0.55910480  0.28456789
   0.36283300  0.72566700  0.09477000
   0.36604115  0.72756334  0.38250090
   0.44616700  0.64233300  0.19117800
   0.27943129  0.55910082  0.28457002
   0.61283300  0.72566700  0.09477000
   0.61129119  0.72980568  0.38182192
   0.69616700  0.64233300  0.19117800
   0.53042806  0.55888691  0.28560305
   0.86283300  0.72566700  0.09477000
   0.86791864  0.72968830  0.38179155
   0.94616700  0.64233300  0.19117800
   0.77813798  0.55886920  0.28557665
   0.11283300  0.97566700  0.09477000
   0.10891222  0.97068668  0.38180409
   0.19616700  0.89233300  0.19117800
   0.02971661  0.80883575  0.28634353
   0.36283300  0.97566700  0.09477000
   0.36130152  0.97323136  0.37676493
   0.44616700  0.89233300  0.19117800
   0.27943342  0.80909827  0.28456924
   0.61283300  0.97566700  0.09477000
   0.61116215  0.97081309  0.38179397
   0.69616700  0.89233300  0.19117800
   0.52888953  0.80887458  0.28634410
   0.86283300  0.97566700  0.09477000
   0.86262515  0.97593092  0.37700540
   0.94616700  0.89233300  0.19117800
   0.77925981  0.80876854  0.28453888
   0.17908154  0.13413383  0.43612285
   0.70450813  0.65954518  0.43611954
   0.19604270  0.64253823  0.43502719
   0.70404167  0.13455162  0.43598822
   0.52934333  0.30933411  0.44131133
 
 position of ions in cartesian coordinates  (Angst):
  -0.00000498  1.94795851  2.00000239
  -0.04857430  1.96193140  8.05789621
   1.24592748  1.22861907  4.03457272
   0.00125117  0.51161924  6.00489360
   2.49184002  1.94795851  2.00000239
   2.47116484  1.94052120  8.22575808
   3.73777248  1.22861907  4.03457272
   2.48653740  0.52143026  6.02682283
   4.98368502  1.94795851  2.00000239
   4.99398103  1.94239092  8.21912309
   6.22961748  1.22861907  4.03457272
   4.98555673  0.52140680  6.02602194
   7.47553002  1.94795851  2.00000239
   7.51601325  1.96297721  8.05724382
   8.72146248  1.22861907  4.03457272
   7.47133505  0.51188915  6.00480483
  -1.24592748  4.10595958  2.00000239
  -1.24846960  4.07897717  8.07231428
   0.00000498  3.38662014  4.03457272
  -1.24752144  2.67284473  6.04299066
   1.24591752  4.10595958  2.00000239
   1.22342659  4.11935183  7.95187839
   2.49184998  3.38662014  4.03457272
   1.25184411  2.65950769  6.02734978
   3.73776252  4.10595958  2.00000239
   3.73427901  4.12869049  8.22535307
   4.98369498  3.38662014  4.03457272
   3.73551854  2.66881946  6.07316895
   6.22960752  4.10595958  2.00000239
   6.24667675  4.11981965  7.95099747
   7.47553998  3.38662014  4.03457272
   6.22028145  2.65986842  6.02602841
  -2.49184998  6.26396066  2.00000239
  -2.51908669  6.28017018  8.07240015
  -1.24591752  5.54462121  4.03457272
  -2.49293575  4.82619507  6.00544968
  -0.00000498  6.26396066  2.00000239
   0.02252113  6.28032989  8.07220344
   1.24592748  5.54462121  4.03457272
  -0.00118729  4.82616064  6.00549451
   2.49184002  6.26396066  2.00000239
   2.45584628  6.29968575  8.05787432
   3.73777248  5.54462121  4.03457272
   2.50165894  4.82431420  6.02729532
   4.98368502  6.26396066  2.00000239
   5.01433462  6.29867250  8.05723338
   6.22961748  5.54462121  4.03457272
   4.97076616  4.82416130  6.02673815
  -3.73777248  8.42196173  2.00000239
  -3.75203200  8.37897163  8.05749815
  -2.49184002  7.70262228  4.03457272
  -3.73478990  6.98187363  6.04292228
  -1.24592748  8.42196173  2.00000239
  -1.24905381  8.40093724  7.95115290
   0.00000498  7.70262228  4.03457272
  -1.24707584  6.98413975  6.00547801
   1.24591752  8.42196173  2.00000239
   1.25345386  8.38006278  8.05728441
   2.49184998  7.70262228  4.03457272
   1.24046278  6.98220884  6.04293438
   3.73776252  8.42196173  2.00000239
   3.73437552  8.42423987  7.95622765
   4.98369498  7.70262228  4.03457272
   3.73652695  6.98129349  6.00483735
   1.11649236  1.15784379  9.20382766
   3.73513150  5.69319679  9.20375781
  -1.24817927  5.54639276  9.18070509
   6.34688730  1.16145016  9.20098634
   3.73454076  2.67017338  9.31332408
 


--------------------------------------------------------------------------------------------------------


 use parallel FFT for orbitals z direction half grid
 k-point  1 :   0.0000 0.0000 0.0000  plane waves:   24475

 maximum and minimum number of plane-waves per node :      1022     1017

 maximum number of plane-waves:     24475
 maximum index in each direction: 
   IXMAX=   18   IYMAX=   18   IZMAX=   39
   IXMIN=  -18   IYMIN=  -18   IZMIN=    0


 real space projection operators:
  total allocation   :      63297.98 KBytes
  max/ min on nodes  :       3213.55       2329.03


 parallel 3D FFT for wavefunctions:
    minimum data exchange during FFTs selected (reduces bandwidth)
 parallel 3D FFT for charge:
    minimum data exchange during FFTs selected (reduces bandwidth)


 total amount of memory used by VASP MPI-rank0    52851. kBytes
=======================================================================

   base      :      30000. kBytes
   nonlr-proj:       3927. kBytes
   fftplans  :       5964. kBytes
   grid      :      10693. kBytes
   one-center:         23. kBytes
   wavefun   :       2244. kBytes
 
     INWAV:  cpu time    0.0000: real time    0.0002
 Broyden mixing: mesh for mixing (old mesh)
   NGX = 37   NGY = 37   NGZ = 79
  (NGX  =160   NGY  =160   NGZ  =320)
  gives a total of 108151 points

 initial charge density was supplied:
 number of electron     670.0000048 magnetization 
 keeping initial charge density in first step


--------------------------------------------------------------------------------------------------------


 Maximum index for non-local projection operator          709
 Maximum index for augmentation-charges         1178 (set IRDMAX)


--------------------------------------------------------------------------------------------------------


 First call to EWALD:  gamma=   0.145
 Maximum number of real-space cells 4x 4x 2
 Maximum number of reciprocal cells 2x 2x 4

    FEWALD:  cpu time    0.0034: real time    0.0045


--------------------------------------- Iteration      1(   1)  ---------------------------------------


    POTLOK:  cpu time    0.1833: real time    0.1922
    SETDIJ:  cpu time    0.0102: real time    0.0102
     EDDAV:  cpu time    2.3831: real time    2.4283
       DOS:  cpu time    0.0052: real time    0.0052
    --------------------------------------------
      LOOP:  cpu time    2.5818: real time    2.6359

 eigenvalue-minimisations  :   804
 total energy-change (2. order) : 0.6125242E+04  (-0.3492917E+05)
 number of electron     670.0000048 magnetization 
 augmentation part      670.0000048 magnetization 

 Free energy of the ion-electron system (eV)
  ---------------------------------------------------
  alpha Z        PSCENC =      1247.11926417
  Ewald energy   TEWEN  =    248327.65593530
  -Hartree energ DENC   =   -317389.55612493
  -exchange      EXHF   =         0.00000000
  -V(xc)+E(xc)   XCENC  =      2092.31299785
  PAW double counting   =     74957.05923424   -79355.93952515
  entropy T*S    EENTRO =        -0.22407931
  eigenvalues    EBANDS =      5114.08515381
  atomic energy  EATOM  =     71132.72877437
  Solvation  Ediel_sol  =         0.00000000
  ---------------------------------------------------
  free energy    TOTEN  =      6125.24163035 eV

  energy without entropy =     6125.46570966  energy(sigma->0) =     6125.35367000


--------------------------------------------------------------------------------------------------------




--------------------------------------- Iteration      1(   2)  ---------------------------------------


     EDDAV:  cpu time    2.3616: real time    2.3747
       DOS:  cpu time    0.0016: real time    0.0016
    --------------------------------------------
      LOOP:  cpu time    2.3632: real time    2.3762

 eigenvalue-minimisations  :   804
 total energy-change (2. order) :-0.5719198E+04  (-0.5525099E+04)
 number of electron     670.0000048 magnetization 
 augmentation part      670.0000048 magnetization 

 Free energy of the ion-electron system (eV)
  ---------------------------------------------------
  alpha Z        PSCENC =      1247.11926417
  Ewald energy   TEWEN  =    248327.65593530
  -Hartree energ DENC   =   -317389.55612493
  -exchange      EXHF   =         0.00000000
  -V(xc)+E(xc)   XCENC  =      2092.31299785
  PAW double counting   =     74957.05923424   -79355.93952515
  entropy T*S    EENTRO =        -0.47270011
  eigenvalues    EBANDS =      -604.86405422
  atomic energy  EATOM  =     71132.72877437
  Solvation  Ediel_sol  =         0.00000000
  ---------------------------------------------------
  free energy    TOTEN  =       406.04380153 eV

  energy without entropy =      406.51650164  energy(sigma->0) =      406.28015159


--------------------------------------------------------------------------------------------------------




--------------------------------------- Iteration      1(   3)  ---------------------------------------


     EDDAV:  cpu time    2.3827: real time    2.3946
       DOS:  cpu time    0.0014: real time    0.0014
    --------------------------------------------
      LOOP:  cpu time    2.3841: real time    2.3960

 eigenvalue-minimisations  :   819
 total energy-change (2. order) :-0.6789282E+03  (-0.6165766E+03)
 number of electron     670.0000048 magnetization 
 augmentation part      670.0000048 magnetization 

 Free energy of the ion-electron system (eV)
  ---------------------------------------------------
  alpha Z        PSCENC =      1247.11926417
  Ewald energy   TEWEN  =    248327.65593530
  -Hartree energ DENC   =   -317389.55612493
  -exchange      EXHF   =         0.00000000
  -V(xc)+E(xc)   XCENC  =      2092.31299785
  PAW double counting   =     74957.05923424   -79355.93952515
  entropy T*S    EENTRO =        -2.36875907
  eigenvalues    EBANDS =     -1281.89623575
  atomic energy  EATOM  =     71132.72877437
  Solvation  Ediel_sol  =         0.00000000
  ---------------------------------------------------
  free energy    TOTEN  =      -272.88443896 eV

  energy without entropy =     -270.51567990  energy(sigma->0) =     -271.70005943


--------------------------------------------------------------------------------------------------------




--------------------------------------- Iteration      1(   4)  ---------------------------------------


     EDDAV:  cpu time    3.0008: real time    3.0137
       DOS:  cpu time    0.0069: real time    0.0069
    --------------------------------------------
      LOOP:  cpu time    3.0077: real time    3.0207

 eigenvalue-minimisations  :  1095
 total energy-change (2. order) :-0.8848739E+02  (-0.7819377E+02)
 number of electron     670.0000048 magnetization 
 augmentation part      670.0000048 magnetization 

 Free energy of the ion-electron system (eV)
  ---------------------------------------------------
  alpha Z        PSCENC =      1247.11926417
  Ewald energy   TEWEN  =    248327.65593530
  -Hartree energ DENC   =   -317389.55612493
  -exchange      EXHF   =         0.00000000
  -V(xc)+E(xc)   XCENC  =      2092.31299785
  PAW double counting   =     74957.05923424   -79355.93952515
  entropy T*S    EENTRO =        -3.35024299
  eigenvalues    EBANDS =     -1369.40213802
  atomic energy  EATOM  =     71132.72877437
  Solvation  Ediel_sol  =         0.00000000
  ---------------------------------------------------
  free energy    TOTEN  =      -361.37182516 eV

  energy without entropy =     -358.02158217  energy(sigma->0) =     -359.69670366


--------------------------------------------------------------------------------------------------------




--------------------------------------- Iteration      1(   5)  ---------------------------------------


     EDDAV:  cpu time    2.4956: real time    2.5086
       DOS:  cpu time    0.0015: real time    0.0015
    CHARGE:  cpu time    0.1100: real time    0.1114
    MIXING:  cpu time    0.0038: real time    0.0038
    --------------------------------------------
      LOOP:  cpu time    2.6109: real time    2.6255

 eigenvalue-minimisations  :   870
 total energy-change (2. order) :-0.5886717E+01  (-0.5712815E+01)
 number of electron     670.0000042 magnetization 
 augmentation part      400.2815821 magnetization 

 Broyden mixing:
  rms(total) = 0.10075E+01    rms(broyden)= 0.10074E+01
  rms(prec ) = 0.12900E+01
  weight for this iteration     100.00

 Free energy of the ion-electron system (eV)
  ---------------------------------------------------
  alpha Z        PSCENC =      1247.11926417
  Ewald energy   TEWEN  =    248327.65593530
  -Hartree energ DENC   =   -317389.55612493
  -exchange      EXHF   =         0.00000000
  -V(xc)+E(xc)   XCENC  =      2092.31299785
  PAW double counting   =     74957.05923424   -79355.93952515
  entropy T*S    EENTRO =        -3.49283424
  eigenvalues    EBANDS =     -1375.14626355
  atomic energy  EATOM  =     71132.72877437
  Solvation  Ediel_sol  =         0.00000000
  ---------------------------------------------------
  free energy    TOTEN  =      -367.25854194 eV

  energy without entropy =     -363.76570770  energy(sigma->0) =     -365.51212482


--------------------------------------------------------------------------------------------------------




--------------------------------------- Iteration      1(   6)  ---------------------------------------


    POTLOK:  cpu time    0.1801: real time    0.1921
    SETDIJ:  cpu time    0.0098: real time    0.0098
    EDDIAG:  cpu time    0.3416: real time    0.3416
  RMM-DIIS:  cpu time    1.6658: real time    1.6684
    ORTHCH:  cpu time    0.0759: real time    0.0759
       DOS:  cpu time    0.0016: real time    0.0016
    CHARGE:  cpu time    0.1107: real time    0.1107
    MIXING:  cpu time    0.0037: real time    0.0037
    --------------------------------------------
      LOOP:  cpu time    2.3894: real time    2.4039

 eigenvalue-minimisations  :   810
 total energy-change (2. order) :-0.5719693E+02  (-0.3030489E+01)
 number of electron     670.0000060 magnetization 
 augmentation part      393.1593541 magnetization 

 Broyden mixing:
  rms(total) = 0.98147E+01    rms(broyden)= 0.98146E+01
  rms(prec ) = 0.12449E+02
  weight for this iteration     100.00

 eigenvalues of (default mixing * dielectric matrix)
  average eigenvalue GAMMA=   0.0747
  0.0747

 Free energy of the ion-electron system (eV)
  ---------------------------------------------------
  alpha Z        PSCENC =      1247.11926417
  Ewald energy   TEWEN  =    248327.65593530
  -Hartree energ DENC   =   -317580.42645375
  -exchange      EXHF   =         0.00000000
  -V(xc)+E(xc)   XCENC  =      2095.26769460
  PAW double counting   =     75286.31538739   -79695.45910926
  entropy T*S    EENTRO =        -1.78071350
  eigenvalues    EBANDS =     -1235.87625258
  atomic energy  EATOM  =     71132.72877437
  Solvation  Ediel_sol  =         0.00000000
  ---------------------------------------------------
  free energy    TOTEN  =      -424.45547326 eV

  energy without entropy =     -422.67475977  energy(sigma->0) =     -423.56511651


--------------------------------------------------------------------------------------------------------




--------------------------------------- Iteration      1(   7)  ---------------------------------------


    POTLOK:  cpu time    0.1803: real time    0.1922
    SETDIJ:  cpu time    0.0098: real time    0.0098
    EDDIAG:  cpu time    0.3448: real time    0.3448
  RMM-DIIS:  cpu time    1.6759: real time    1.6760
    ORTHCH:  cpu time    0.0765: real time    0.0765
       DOS:  cpu time    0.0016: real time    0.0016
    CHARGE:  cpu time    0.1101: real time    0.1101
    MIXING:  cpu time    0.0037: real time    0.0037
    --------------------------------------------
      LOOP:  cpu time    2.4035: real time    2.4146

 eigenvalue-minimisations  :   810
 total energy-change (2. order) : 0.4409862E+02  (-0.2255080E+01)
 number of electron     670.0000081 magnetization 
 augmentation part      396.3734795 magnetization 

 Broyden mixing:
  rms(total) = 0.46409E+01    rms(broyden)= 0.46408E+01
  rms(prec ) = 0.55072E+01
  weight for this iteration     100.00

 eigenvalues of (default mixing * dielectric matrix)
  average eigenvalue GAMMA=   0.0878
  0.0878  0.0878

 Free energy of the ion-electron system (eV)
  ---------------------------------------------------
  alpha Z        PSCENC =      1247.11926417
  Ewald energy   TEWEN  =    248327.65593530
  -Hartree energ DENC   =   -317532.66604907
  -exchange      EXHF   =         0.00000000
  -V(xc)+E(xc)   XCENC  =      2094.67564467
  PAW double counting   =     75279.15908419   -79685.34959281
  entropy T*S    EENTRO =        -2.59702841
  eigenvalues    EBANDS =     -1241.08288904
  atomic energy  EATOM  =     71132.72877437
  Solvation  Ediel_sol  =         0.00000000
  ---------------------------------------------------
  free energy    TOTEN  =      -380.35685663 eV

  energy without entropy =     -377.75982822  energy(sigma->0) =     -379.05834242


--------------------------------------------------------------------------------------------------------




--------------------------------------- Iteration      1(   8)  ---------------------------------------


    POTLOK:  cpu time    0.1826: real time    0.1946
    SETDIJ:  cpu time    0.0099: real time    0.0099
    EDDIAG:  cpu time    0.3433: real time    0.3434
  RMM-DIIS:  cpu time    1.6985: real time    1.6990
    ORTHCH:  cpu time    0.0795: real time    0.0795
       DOS:  cpu time    0.0023: real time    0.0023
    CHARGE:  cpu time    0.1139: real time    0.1139
    MIXING:  cpu time    0.0039: real time    0.0039
    --------------------------------------------
      LOOP:  cpu time    2.4331: real time    2.4464

 eigenvalue-minimisations  :   817
 total energy-change (2. order) : 0.1294415E+02  (-0.7555188E+00)
 number of electron     670.0000054 magnetization 
 augmentation part      398.4043912 magnetization 

 Broyden mixing:
  rms(total) = 0.17013E+01    rms(broyden)= 0.17011E+01
  rms(prec ) = 0.22351E+01
  weight for this iteration     100.00

 eigenvalues of (default mixing * dielectric matrix)
  average eigenvalue GAMMA=   0.0866
  0.0971  0.0971  0.0658

 Free energy of the ion-electron system (eV)
  ---------------------------------------------------
  alpha Z        PSCENC =      1247.11926417
  Ewald energy   TEWEN  =    248327.65593530
  -Hartree energ DENC   =   -317457.12744791
  -exchange      EXHF   =         0.00000000
  -V(xc)+E(xc)   XCENC  =      2094.62008428
  PAW double counting   =     75266.03219990   -79670.03073281
  entropy T*S    EENTRO =        -3.68666297
  eigenvalues    EBANDS =     -1304.72412056
  atomic energy  EATOM  =     71132.72877437
  Solvation  Ediel_sol  =         0.00000000
  ---------------------------------------------------
  free energy    TOTEN  =      -367.41270624 eV

  energy without entropy =     -363.72604327  energy(sigma->0) =     -365.56937475


--------------------------------------------------------------------------------------------------------




--------------------------------------- Iteration      1(   9)  ---------------------------------------


    POTLOK:  cpu time    0.1813: real time    0.1947
    SETDIJ:  cpu time    0.0105: real time    0.0105
    EDDIAG:  cpu time    0.3456: real time    0.3455
  RMM-DIIS:  cpu time    1.6989: real time    1.6990
    ORTHCH:  cpu time    0.0761: real time    0.0761
       DOS:  cpu time    0.0016: real time    0.0016
    CHARGE:  cpu time    0.1099: real time    0.1099
    MIXING:  cpu time    0.0039: real time    0.0039
    --------------------------------------------
      LOOP:  cpu time    2.4278: real time    2.4413

 eigenvalue-minimisations  :   815
 total energy-change (2. order) : 0.9459818E+00  (-0.8355939E-01)
 number of electron     670.0000050 magnetization 
 augmentation part      398.0788474 magnetization 

 Broyden mixing:
  rms(total) = 0.76282E+00    rms(broyden)= 0.76269E+00
  rms(prec ) = 0.94532E+00
  weight for this iteration     100.00

 eigenvalues of (default mixing * dielectric matrix)
  average eigenvalue GAMMA=   0.1501
  0.3404  0.1029  0.1029  0.0541

 Free energy of the ion-electron system (eV)
  ---------------------------------------------------
  alpha Z        PSCENC =      1247.11926417
  Ewald energy   TEWEN  =    248327.65593530
  -Hartree energ DENC   =   -317461.81783183
  -exchange      EXHF   =         0.00000000
  -V(xc)+E(xc)   XCENC  =      2094.58594369
  PAW double counting   =     75260.22905800   -79663.80498516
  entropy T*S    EENTRO =        -3.94860070
  eigenvalues    EBANDS =     -1299.21428228
  atomic energy  EATOM  =     71132.72877437
  Solvation  Ediel_sol  =         0.00000000
  ---------------------------------------------------
  free energy    TOTEN  =      -366.46672444 eV

  energy without entropy =     -362.51812374  energy(sigma->0) =     -364.49242409


--------------------------------------------------------------------------------------------------------




--------------------------------------- Iteration      1(  10)  ---------------------------------------


    POTLOK:  cpu time    0.1827: real time    0.1955
    SETDIJ:  cpu time    0.0100: real time    0.0100
    EDDIAG:  cpu time    0.3503: real time    0.3503
  RMM-DIIS:  cpu time    1.6593: real time    1.6602
    ORTHCH:  cpu time    0.0769: real time    0.0769
       DOS:  cpu time    0.0017: real time    0.0017
    CHARGE:  cpu time    0.1098: real time    0.1100
    MIXING:  cpu time    0.0041: real time    0.0041
    --------------------------------------------
      LOOP:  cpu time    2.3949: real time    2.4087

 eigenvalue-minimisations  :   810
 total energy-change (2. order) :-0.5211846E+00  (-0.8521260E-01)
 number of electron     670.0000052 magnetization 
 augmentation part      398.5006613 magnetization 

 Broyden mixing:
  rms(total) = 0.14349E+01    rms(broyden)= 0.14348E+01
  rms(prec ) = 0.17533E+01
  weight for this iteration     100.00

 eigenvalues of (default mixing * dielectric matrix)
  average eigenvalue GAMMA=   0.2055
  0.6852  0.0984  0.0984  0.0941  0.0517

 Free energy of the ion-electron system (eV)
  ---------------------------------------------------
  alpha Z        PSCENC =      1247.11926417
  Ewald energy   TEWEN  =    248327.65593530
  -Hartree energ DENC   =   -317453.20156402
  -exchange      EXHF   =         0.00000000
  -V(xc)+E(xc)   XCENC  =      2094.36477874
  PAW double counting   =     75224.38033207   -79623.67745873
  entropy T*S    EENTRO =        -3.64735255
  eigenvalues    EBANDS =     -1312.71061839
  atomic energy  EATOM  =     71132.72877437
  Solvation  Ediel_sol  =         0.00000000
  ---------------------------------------------------
  free energy    TOTEN  =      -366.98790903 eV

  energy without entropy =     -363.34055648  energy(sigma->0) =     -365.16423275


--------------------------------------------------------------------------------------------------------




--------------------------------------- Iteration      1(  11)  ---------------------------------------


    POTLOK:  cpu time    0.1849: real time    0.1971
    SETDIJ:  cpu time    0.0099: real time    0.0099
    EDDIAG:  cpu time    0.3424: real time    0.3424
  RMM-DIIS:  cpu time    1.6631: real time    1.6638
    ORTHCH:  cpu time    0.0768: real time    0.0767
       DOS:  cpu time    0.0016: real time    0.0016
    CHARGE:  cpu time    0.1095: real time    0.1095
    MIXING:  cpu time    0.0041: real time    0.0041
    --------------------------------------------
      LOOP:  cpu time    2.3925: real time    2.4053

 eigenvalue-minimisations  :   811
 total energy-change (2. order) : 0.6067688E+00  (-0.4642472E-01)
 number of electron     670.0000048 magnetization 
 augmentation part      398.8790294 magnetization 

 Broyden mixing:
  rms(total) = 0.58781E+00    rms(broyden)= 0.58769E+00
  rms(prec ) = 0.67195E+00
  weight for this iteration     100.00

 eigenvalues of (default mixing * dielectric matrix)
  average eigenvalue GAMMA=   0.2206
  0.8023  0.1849  0.1009  0.1009  0.0834  0.0509

 Free energy of the ion-electron system (eV)
  ---------------------------------------------------
  alpha Z        PSCENC =      1247.11926417
  Ewald energy   TEWEN  =    248327.65593530
  -Hartree energ DENC   =   -317438.82849955
  -exchange      EXHF   =         0.00000000
  -V(xc)+E(xc)   XCENC  =      2094.26694449
  PAW double counting   =     75181.24118007   -79576.37800584
  entropy T*S    EENTRO =        -3.88453836
  eigenvalues    EBANDS =     -1330.30219487
  atomic energy  EATOM  =     71132.72877437
  Solvation  Ediel_sol  =         0.00000000
  ---------------------------------------------------
  free energy    TOTEN  =      -366.38114022 eV

  energy without entropy =     -362.49660186  energy(sigma->0) =     -364.43887104


--------------------------------------------------------------------------------------------------------




--------------------------------------- Iteration      1(  12)  ---------------------------------------


    POTLOK:  cpu time    0.1852: real time    0.1987
    SETDIJ:  cpu time    0.0099: real time    0.0099
    EDDIAG:  cpu time    0.3412: real time    0.3412
  RMM-DIIS:  cpu time    1.6812: real time    1.6820
    ORTHCH:  cpu time    0.0765: real time    0.0765
       DOS:  cpu time    0.0017: real time    0.0017
    CHARGE:  cpu time    0.1096: real time    0.1096
    MIXING:  cpu time    0.0043: real time    0.0043
    --------------------------------------------
      LOOP:  cpu time    2.4095: real time    2.4238

 eigenvalue-minimisations  :   807
 total energy-change (2. order) : 0.3877570E-01  (-0.2854075E-01)
 number of electron     670.0000046 magnetization 
 augmentation part      398.8832196 magnetization 

 Broyden mixing:
  rms(total) = 0.52235E+00    rms(broyden)= 0.52228E+00
  rms(prec ) = 0.59483E+00
  weight for this iteration     100.00

 eigenvalues of (default mixing * dielectric matrix)
  average eigenvalue GAMMA=   0.3339
  1.2899  0.6134  0.0978  0.0978  0.1098  0.0511  0.0775

 Free energy of the ion-electron system (eV)
  ---------------------------------------------------
  alpha Z        PSCENC =      1247.11926417
  Ewald energy   TEWEN  =    248327.65593530
  -Hartree energ DENC   =   -317439.06286750
  -exchange      EXHF   =         0.00000000
  -V(xc)+E(xc)   XCENC  =      2094.31885275
  PAW double counting   =     75161.64566096   -79555.59243471
  entropy T*S    EENTRO =        -3.91865674
  eigenvalues    EBANDS =     -1331.23689311
  atomic energy  EATOM  =     71132.72877437
  Solvation  Ediel_sol  =         0.00000000
  ---------------------------------------------------
  free energy    TOTEN  =      -366.34236452 eV

  energy without entropy =     -362.42370777  energy(sigma->0) =     -364.38303615


--------------------------------------------------------------------------------------------------------




--------------------------------------- Iteration      1(  13)  ---------------------------------------


    POTLOK:  cpu time    0.1850: real time    0.1970
    SETDIJ:  cpu time    0.0101: real time    0.0101
    EDDIAG:  cpu time    0.3423: real time    0.3423
  RMM-DIIS:  cpu time    1.6584: real time    1.6632
    ORTHCH:  cpu time    0.0769: real time    0.0770
       DOS:  cpu time    0.0017: real time    0.0017
    CHARGE:  cpu time    0.1095: real time    0.1095
    MIXING:  cpu time    0.0044: real time    0.0044
    --------------------------------------------
      LOOP:  cpu time    2.3883: real time    2.4052

 eigenvalue-minimisations  :   810
 total energy-change (2. order) :-0.1204633E+00  (-0.2114102E-01)
 number of electron     670.0000048 magnetization 
 augmentation part      398.6204908 magnetization 

 Broyden mixing:
  rms(total) = 0.78093E+00    rms(broyden)= 0.78090E+00
  rms(prec ) = 0.90314E+00
  weight for this iteration     100.00

 eigenvalues of (default mixing * dielectric matrix)
  average eigenvalue GAMMA=   0.3338
  1.4731  0.6746  0.1204  0.0983  0.0983  0.0511  0.0772  0.0772

 Free energy of the ion-electron system (eV)
  ---------------------------------------------------
  alpha Z        PSCENC =      1247.11926417
  Ewald energy   TEWEN  =    248327.65593530
  -Hartree energ DENC   =   -317449.79152576
  -exchange      EXHF   =         0.00000000
  -V(xc)+E(xc)   XCENC  =      2094.63835750
  PAW double counting   =     75107.61396803   -79499.83050212
  entropy T*S    EENTRO =        -3.90618469
  eigenvalues    EBANDS =     -1322.69091458
  atomic energy  EATOM  =     71132.72877437
  Solvation  Ediel_sol  =         0.00000000
  ---------------------------------------------------
  free energy    TOTEN  =      -366.46282778 eV

  energy without entropy =     -362.55664309  energy(sigma->0) =     -364.50973544


--------------------------------------------------------------------------------------------------------




--------------------------------------- Iteration      1(  14)  ---------------------------------------


    POTLOK:  cpu time    0.1867: real time    0.1988
    SETDIJ:  cpu time    0.0099: real time    0.0099
    EDDIAG:  cpu time    0.3418: real time    0.3418
  RMM-DIIS:  cpu time    1.6665: real time    1.6674
    ORTHCH:  cpu time    0.0762: real time    0.0762
       DOS:  cpu time    0.0017: real time    0.0016
    CHARGE:  cpu time    0.1095: real time    0.1095
    MIXING:  cpu time    0.0046: real time    0.0046
    --------------------------------------------
      LOOP:  cpu time    2.3969: real time    2.4099

 eigenvalue-minimisations  :   811
 total energy-change (2. order) : 0.1839703E+00  (-0.1272956E-01)
 number of electron     670.0000048 magnetization 
 augmentation part      398.5884058 magnetization 

 Broyden mixing:
  rms(total) = 0.30057E+00    rms(broyden)= 0.30051E+00
  rms(prec ) = 0.35409E+00
  weight for this iteration     100.00

 eigenvalues of (default mixing * dielectric matrix)
  average eigenvalue GAMMA=   0.3320
  1.5498  0.7303  0.2065  0.0980  0.0980  0.1083  0.0510  0.0791  0.0666

 Free energy of the ion-electron system (eV)
  ---------------------------------------------------
  alpha Z        PSCENC =      1247.11926417
  Ewald energy   TEWEN  =    248327.65593530
  -Hartree energ DENC   =   -317453.04281689
  -exchange      EXHF   =         0.00000000
  -V(xc)+E(xc)   XCENC  =      2094.73625471
  PAW double counting   =     75088.59388101   -79480.21174796
  entropy T*S    EENTRO =        -3.95073820
  eigenvalues    EBANDS =     -1319.90766395
  atomic energy  EATOM  =     71132.72877437
  Solvation  Ediel_sol  =         0.00000000
  ---------------------------------------------------
  free energy    TOTEN  =      -366.27885744 eV

  energy without entropy =     -362.32811924  energy(sigma->0) =     -364.30348834


--------------------------------------------------------------------------------------------------------




--------------------------------------- Iteration      1(  15)  ---------------------------------------


    POTLOK:  cpu time    0.1856: real time    0.1979
    SETDIJ:  cpu time    0.0098: real time    0.0098
    EDDIAG:  cpu time    0.3428: real time    0.3430
  RMM-DIIS:  cpu time    1.6637: real time    1.6638
    ORTHCH:  cpu time    0.0770: real time    0.0770
       DOS:  cpu time    0.0016: real time    0.0016
    CHARGE:  cpu time    0.1100: real time    0.1101
    MIXING:  cpu time    0.0048: real time    0.0047
    --------------------------------------------
      LOOP:  cpu time    2.3954: real time    2.4079

 eigenvalue-minimisations  :   809
 total energy-change (2. order) :-0.5301387E-02  (-0.5875169E-02)
 number of electron     670.0000049 magnetization 
 augmentation part      398.5796352 magnetization 

 Broyden mixing:
  rms(total) = 0.33552E+00    rms(broyden)= 0.33550E+00
  rms(prec ) = 0.39115E+00
  weight for this iteration     100.00

 eigenvalues of (default mixing * dielectric matrix)
  average eigenvalue GAMMA=   0.3884
  1.8122  1.0208  0.4609  0.0977  0.0977  0.1160  0.0511  0.0904  0.0765  0.0611

 Free energy of the ion-electron system (eV)
  ---------------------------------------------------
  alpha Z        PSCENC =      1247.11926417
  Ewald energy   TEWEN  =    248327.65593530
  -Hartree energ DENC   =   -317454.11619197
  -exchange      EXHF   =         0.00000000
  -V(xc)+E(xc)   XCENC  =      2094.77271871
  PAW double counting   =     75072.83942963   -79463.80538007
  entropy T*S    EENTRO =        -3.96163840
  eigenvalues    EBANDS =     -1319.51707057
  atomic energy  EATOM  =     71132.72877437
  Solvation  Ediel_sol  =         0.00000000
  ---------------------------------------------------
  free energy    TOTEN  =      -366.28415883 eV

  energy without entropy =     -362.32252043  energy(sigma->0) =     -364.30333963


--------------------------------------------------------------------------------------------------------




--------------------------------------- Iteration      1(  16)  ---------------------------------------


    POTLOK:  cpu time    0.1841: real time    0.1970
    SETDIJ:  cpu time    0.0098: real time    0.0098
    EDDIAG:  cpu time    0.3394: real time    0.3394
  RMM-DIIS:  cpu time    1.6747: real time    1.6750
    ORTHCH:  cpu time    0.0761: real time    0.0761
       DOS:  cpu time    0.0022: real time    0.0022
    CHARGE:  cpu time    0.1133: real time    0.1133
    MIXING:  cpu time    0.0050: real time    0.0050
    --------------------------------------------
      LOOP:  cpu time    2.4046: real time    2.4178

 eigenvalue-minimisations  :   810
 total energy-change (2. order) : 0.9322609E-02  (-0.4579285E-02)
 number of electron     670.0000049 magnetization 
 augmentation part      398.6437126 magnetization 

 Broyden mixing:
  rms(total) = 0.28235E+00    rms(broyden)= 0.28234E+00
  rms(prec ) = 0.33643E+00
  weight for this iteration     100.00

 eigenvalues of (default mixing * dielectric matrix)
  average eigenvalue GAMMA=   0.3917
  1.9996  1.1091  0.4859  0.0981  0.0981  0.1318  0.1137  0.0510  0.0832  0.0787
  0.0597

 Free energy of the ion-electron system (eV)
  ---------------------------------------------------
  alpha Z        PSCENC =      1247.11926417
  Ewald energy   TEWEN  =    248327.65593530
  -Hartree energ DENC   =   -317454.34004882
  -exchange      EXHF   =         0.00000000
  -V(xc)+E(xc)   XCENC  =      2094.83924819
  PAW double counting   =     75028.53105966   -79417.47515980
  entropy T*S    EENTRO =        -3.95447890
  eigenvalues    EBANDS =     -1321.37943038
  atomic energy  EATOM  =     71132.72877437
  Solvation  Ediel_sol  =         0.00000000
  ---------------------------------------------------
  free energy    TOTEN  =      -366.27483622 eV

  energy without entropy =     -362.32035731  energy(sigma->0) =     -364.29759677


--------------------------------------------------------------------------------------------------------




--------------------------------------- Iteration      1(  17)  ---------------------------------------


    POTLOK:  cpu time    0.1845: real time    0.1972
    SETDIJ:  cpu time    0.0098: real time    0.0098
    EDDIAG:  cpu time    0.3415: real time    0.3415
  RMM-DIIS:  cpu time    1.6744: real time    1.6747
    ORTHCH:  cpu time    0.0762: real time    0.0762
       DOS:  cpu time    0.0018: real time    0.0018
    CHARGE:  cpu time    0.1096: real time    0.1096
    MIXING:  cpu time    0.0051: real time    0.0051
    --------------------------------------------
      LOOP:  cpu time    2.4038: real time    2.4159

 eigenvalue-minimisations  :   811
 total energy-change (2. order) : 0.2278784E-01  (-0.2860270E-02)
 number of electron     670.0000049 magnetization 
 augmentation part      398.6437138 magnetization 

 Broyden mixing:
  rms(total) = 0.17404E+00    rms(broyden)= 0.17403E+00
  rms(prec ) = 0.22274E+00
  weight for this iteration     100.00

 eigenvalues of (default mixing * dielectric matrix)
  average eigenvalue GAMMA=   0.3978
  2.1731  1.1490  0.4869  0.2805  0.0981  0.0981  0.1178  0.0510  0.0992  0.0840
  0.0758  0.0600

 Free energy of the ion-electron system (eV)
  ---------------------------------------------------
  alpha Z        PSCENC =      1247.11926417
  Ewald energy   TEWEN  =    248327.65593530
  -Hartree energ DENC   =   -317454.78566643
  -exchange      EXHF   =         0.00000000
  -V(xc)+E(xc)   XCENC  =      2094.86773432
  PAW double counting   =     75010.78389241   -79398.96730720
  entropy T*S    EENTRO =        -3.96036390
  eigenvalues    EBANDS =     -1321.69431141
  atomic energy  EATOM  =     71132.72877437
  Solvation  Ediel_sol  =         0.00000000
  ---------------------------------------------------
  free energy    TOTEN  =      -366.25204838 eV

  energy without entropy =     -362.29168448  energy(sigma->0) =     -364.27186643


--------------------------------------------------------------------------------------------------------




--------------------------------------- Iteration      1(  18)  ---------------------------------------


    POTLOK:  cpu time    0.1847: real time    0.1968
    SETDIJ:  cpu time    0.0098: real time    0.0098
    EDDIAG:  cpu time    0.3419: real time    0.3419
  RMM-DIIS:  cpu time    1.6732: real time    1.6742
    ORTHCH:  cpu time    0.0765: real time    0.0765
       DOS:  cpu time    0.0016: real time    0.0016
    CHARGE:  cpu time    0.1091: real time    0.1091
    MIXING:  cpu time    0.0052: real time    0.0052
    --------------------------------------------
      LOOP:  cpu time    2.4012: real time    2.4151

 eigenvalue-minimisations  :   807
 total energy-change (2. order) : 0.2824220E-02  (-0.1156124E-02)
 number of electron     670.0000048 magnetization 
 augmentation part      398.6569269 magnetization 

 Broyden mixing:
  rms(total) = 0.14537E+00    rms(broyden)= 0.14536E+00
  rms(prec ) = 0.18022E+00
  weight for this iteration     100.00

 eigenvalues of (default mixing * dielectric matrix)
  average eigenvalue GAMMA=   0.4247
  2.4862  1.1937  0.5223  0.5223  0.0980  0.0980  0.1313  0.1132  0.0510  0.0897
  0.0776  0.0776  0.0598

 Free energy of the ion-electron system (eV)
  ---------------------------------------------------
  alpha Z        PSCENC =      1247.11926417
  Ewald energy   TEWEN  =    248327.65593530
  -Hartree energ DENC   =   -317454.90122877
  -exchange      EXHF   =         0.00000000
  -V(xc)+E(xc)   XCENC  =      2094.88964322
  PAW double counting   =     74996.06870603   -79383.66856557
  entropy T*S    EENTRO =        -3.96130030
  eigenvalues    EBANDS =     -1322.18045261
  atomic energy  EATOM  =     71132.72877437
  Solvation  Ediel_sol  =         0.00000000
  ---------------------------------------------------
  free energy    TOTEN  =      -366.24922416 eV

  energy without entropy =     -362.28792386  energy(sigma->0) =     -364.26857401


--------------------------------------------------------------------------------------------------------




--------------------------------------- Iteration      1(  19)  ---------------------------------------


    POTLOK:  cpu time    0.1851: real time    0.1986
    SETDIJ:  cpu time    0.0099: real time    0.0099
    EDDIAG:  cpu time    0.3392: real time    0.3393
  RMM-DIIS:  cpu time    1.6643: real time    1.6645
    ORTHCH:  cpu time    0.0769: real time    0.0769
       DOS:  cpu time    0.0014: real time    0.0014
    CHARGE:  cpu time    0.1093: real time    0.1093
    MIXING:  cpu time    0.0055: real time    0.0056
    --------------------------------------------
      LOOP:  cpu time    2.3916: real time    2.4054

 eigenvalue-minimisations  :   810
 total energy-change (2. order) : 0.6895118E-02  (-0.5909958E-03)
 number of electron     670.0000048 magnetization 
 augmentation part      398.6517399 magnetization 

 Broyden mixing:
  rms(total) = 0.65276E-01    rms(broyden)= 0.65261E-01
  rms(prec ) = 0.74295E-01
  weight for this iteration     100.00

 eigenvalues of (default mixing * dielectric matrix)
  average eigenvalue GAMMA=   0.4105
  2.5219  1.2073  0.5523  0.5287  0.1577  0.0979  0.0979  0.1151  0.1151  0.0510
  0.0598  0.0858  0.0750  0.0809

 Free energy of the ion-electron system (eV)
  ---------------------------------------------------
  alpha Z        PSCENC =      1247.11926417
  Ewald energy   TEWEN  =    248327.65593530
  -Hartree energ DENC   =   -317454.91460752
  -exchange      EXHF   =         0.00000000
  -V(xc)+E(xc)   XCENC  =      2094.91707490
  PAW double counting   =     74974.69449341   -79361.46740490
  entropy T*S    EENTRO =        -3.96775231
  eigenvalues    EBANDS =     -1323.00810645
  atomic energy  EATOM  =     71132.72877437
  Solvation  Ediel_sol  =         0.00000000
  ---------------------------------------------------
  free energy    TOTEN  =      -366.24232904 eV

  energy without entropy =     -362.27457673  energy(sigma->0) =     -364.25845288


--------------------------------------------------------------------------------------------------------




--------------------------------------- Iteration      1(  20)  ---------------------------------------


    POTLOK:  cpu time    0.1860: real time    0.1978
    SETDIJ:  cpu time    0.0099: real time    0.0099
    EDDIAG:  cpu time    0.3421: real time    0.3422
  RMM-DIIS:  cpu time    1.6717: real time    1.6720
    ORTHCH:  cpu time    0.0768: real time    0.0768
       DOS:  cpu time    0.0017: real time    0.0017
    CHARGE:  cpu time    0.1098: real time    0.1098
    MIXING:  cpu time    0.0055: real time    0.0055
    --------------------------------------------
      LOOP:  cpu time    2.4035: real time    2.4156

 eigenvalue-minimisations  :   810
 total energy-change (2. order) : 0.9254053E-03  (-0.1986905E-03)
 number of electron     670.0000048 magnetization 
 augmentation part      398.6617330 magnetization 

 Broyden mixing:
  rms(total) = 0.48013E-01    rms(broyden)= 0.48008E-01
  rms(prec ) = 0.55604E-01
  weight for this iteration     100.00

 eigenvalues of (default mixing * dielectric matrix)
  average eigenvalue GAMMA=   0.4142
  2.4831  1.2608  0.5966  0.5966  0.3975  0.0979  0.0979  0.1305  0.1153  0.0510
  0.0598  0.0911  0.0835  0.0752  0.0752

 Free energy of the ion-electron system (eV)
  ---------------------------------------------------
  alpha Z        PSCENC =      1247.11926417
  Ewald energy   TEWEN  =    248327.65593530
  -Hartree energ DENC   =   -317454.68304399
  -exchange      EXHF   =         0.00000000
  -V(xc)+E(xc)   XCENC  =      2094.91431143
  PAW double counting   =     74971.87773014   -79358.51911993
  entropy T*S    EENTRO =        -3.96624661
  eigenvalues    EBANDS =     -1323.36900852
  atomic energy  EATOM  =     71132.72877437
  Solvation  Ediel_sol  =         0.00000000
  ---------------------------------------------------
  free energy    TOTEN  =      -366.24140363 eV

  energy without entropy =     -362.27515703  energy(sigma->0) =     -364.25828033


--------------------------------------------------------------------------------------------------------




--------------------------------------- Iteration      1(  21)  ---------------------------------------


    POTLOK:  cpu time    0.1848: real time    0.1971
    SETDIJ:  cpu time    0.0100: real time    0.0100
    EDDIAG:  cpu time    0.3454: real time    0.3455
  RMM-DIIS:  cpu time    1.6570: real time    1.6577
    ORTHCH:  cpu time    0.0759: real time    0.0759
       DOS:  cpu time    0.0019: real time    0.0019
    CHARGE:  cpu time    0.1099: real time    0.1099
    MIXING:  cpu time    0.0056: real time    0.0056
    --------------------------------------------
      LOOP:  cpu time    2.3906: real time    2.4035

 eigenvalue-minimisations  :   810
 total energy-change (2. order) :-0.7700837E-03  (-0.1362196E-03)
 number of electron     670.0000048 magnetization 
 augmentation part      398.6770758 magnetization 

 Broyden mixing:
  rms(total) = 0.68573E-01    rms(broyden)= 0.68570E-01
  rms(prec ) = 0.80688E-01
  weight for this iteration     100.00

 eigenvalues of (default mixing * dielectric matrix)
  average eigenvalue GAMMA=   0.4135
  2.4198  1.3646  0.7122  0.7122  0.4457  0.1346  0.0980  0.0980  0.1146  0.1020
  0.0510  0.0874  0.0772  0.0772  0.0598  0.0625

 Free energy of the ion-electron system (eV)
  ---------------------------------------------------
  alpha Z        PSCENC =      1247.11926417
  Ewald energy   TEWEN  =    248327.65593530
  -Hartree energ DENC   =   -317454.44642162
  -exchange      EXHF   =         0.00000000
  -V(xc)+E(xc)   XCENC  =      2094.90086367
  PAW double counting   =     74970.47665348   -79357.05646805
  entropy T*S    EENTRO =        -3.96590251
  eigenvalues    EBANDS =     -1323.65487251
  atomic energy  EATOM  =     71132.72877437
  Solvation  Ediel_sol  =         0.00000000
  ---------------------------------------------------
  free energy    TOTEN  =      -366.24217372 eV

  energy without entropy =     -362.27627121  energy(sigma->0) =     -364.25922246


--------------------------------------------------------------------------------------------------------




--------------------------------------- Iteration      1(  22)  ---------------------------------------


    POTLOK:  cpu time    0.1856: real time    0.1978
    SETDIJ:  cpu time    0.0099: real time    0.0101
    EDDIAG:  cpu time    0.3537: real time    0.3537
  RMM-DIIS:  cpu time    1.6603: real time    1.6612
    ORTHCH:  cpu time    0.0755: real time    0.0755
       DOS:  cpu time    0.0017: real time    0.0017
    CHARGE:  cpu time    0.1100: real time    0.1100
    MIXING:  cpu time    0.0058: real time    0.0058
    --------------------------------------------
      LOOP:  cpu time    2.4026: real time    2.4158

 eigenvalue-minimisations  :   808
 total energy-change (2. order) : 0.1128873E-02  (-0.9285655E-04)
 number of electron     670.0000048 magnetization 
 augmentation part      398.6822787 magnetization 

 Broyden mixing:
  rms(total) = 0.36284E-01    rms(broyden)= 0.36280E-01
  rms(prec ) = 0.44070E-01
  weight for this iteration     100.00

 eigenvalues of (default mixing * dielectric matrix)
  average eigenvalue GAMMA=   0.4055
  2.4235  1.4027  0.7492  0.7492  0.4509  0.1741  0.0979  0.0979  0.1279  0.1168
  0.0510  0.0940  0.0837  0.0794  0.0751  0.0598  0.0596

 Free energy of the ion-electron system (eV)
[...]
     -0.000005  1.947959  2.000002            0           0           0  
     -0.048574  1.961931  8.057896            0           0           0  
      1.245927  1.228619  4.034573            0           0           0  
      0.001251  0.511619  6.004894            0           0           0  
      2.491840  1.947959  2.000002            0           0           0  
      2.471165  1.940521  8.225758            0           0           0  
      3.737772  1.228619  4.034573            0           0           0  
      2.486537  0.521430  6.026823            0           0           0  
      4.983685  1.947959  2.000002            0           0           0  
      4.993981  1.942391  8.219123            0           0           0  
      6.229617  1.228619  4.034573            0           0           0  
      4.985557  0.521407  6.026022            0           0           0  
      7.475530  1.947959  2.000002            0           0           0  
      7.516013  1.962977  8.057244            0           0           0  
      8.721462  1.228619  4.034573            0           0           0  
      7.471335  0.511889  6.004805            0           0           0  
     -1.245927  4.105960  2.000002            0           0           0  
     -1.248470  4.078977  8.072314            0           0           0  
      0.000005  3.386620  4.034573            0           0           0  
     -1.247521  2.672845  6.042991            0           0           0  
      1.245918  4.105960  2.000002            0           0           0  
      1.223427  4.119352  7.951878            0           0           0  
      2.491850  3.386620  4.034573            0           0           0  
      1.251844  2.659508  6.027350            0           0           0  
      3.737763  4.105960  2.000002            0           0           0  
      3.734279  4.128690  8.225353            0           0           0  
      4.983695  3.386620  4.034573            0           0           0  
      3.735519  2.668819  6.073169            0           0           0  
      6.229608  4.105960  2.000002            0           0           0  
      6.246677  4.119820  7.950997            0           0           0  
      7.475540  3.386620  4.034573            0           0           0  
      6.220281  2.659868  6.026028            0           0           0  
     -2.491850  6.263961  2.000002            0           0           0  
     -2.519087  6.280170  8.072400            0           0           0  
     -1.245918  5.544621  4.034573            0           0           0  
     -2.492936  4.826195  6.005450            0           0           0  
     -0.000005  6.263961  2.000002            0           0           0  
      0.022521  6.280330  8.072203            0           0           0  
      1.245927  5.544621  4.034573            0           0           0  
     -0.001187  4.826161  6.005495            0           0           0  
      2.491840  6.263961  2.000002            0           0           0  
      2.455846  6.299686  8.057874            0           0           0  
      3.737772  5.544621  4.034573            0           0           0  
      2.501659  4.824314  6.027295            0           0           0  
      4.983685  6.263961  2.000002            0           0           0  
      5.014335  6.298672  8.057233            0           0           0  
      6.229617  5.544621  4.034573            0           0           0  
      4.970766  4.824161  6.026738            0           0           0  
     -3.737772  8.421962  2.000002            0           0           0  
     -3.752032  8.378972  8.057498            0           0           0  
     -2.491840  7.702622  4.034573            0           0           0  
     -3.734790  6.981874  6.042922            0           0           0  
     -1.245927  8.421962  2.000002            0           0           0  
     -1.249054  8.400937  7.951153            0           0           0  
      0.000005  7.702622  4.034573            0           0           0  
     -1.247076  6.984140  6.005478            0           0           0  
      1.245918  8.421962  2.000002            0           0           0  
      1.253454  8.380063  8.057284            0           0           0  
      2.491850  7.702622  4.034573            0           0           0  
      1.240463  6.982209  6.042934            0           0           0  
      3.737763  8.421962  2.000002            0           0           0  
      3.734376  8.424240  7.956228            0           0           0  
      4.983695  7.702622  4.034573            0           0           0  
      3.736527  6.981293  6.004837            0           0           0  
      1.116492  1.157844  9.203828            0           0           0  
      3.735131  5.693197  9.203758            0           0           0  
     -1.248179  5.546393  9.180705            0           0           0  
      6.346887  1.161450  9.200986            0           0           0  
      3.734541  2.670173  9.313324     0.005362   -0.010122    0.999934  
 
   2 f  =   12.980618 THz    81.559628 2PiTHz  432.986796 cm-1    53.683540 meV
             X         Y         Z           dx          dy          dz
     -0.000005  1.947959  2.000002            0           0           0  
     -0.048574  1.961931  8.057896            0           0           0  
      1.245927  1.228619  4.034573            0           0           0  
      0.001251  0.511619  6.004894            0           0           0  
      2.491840  1.947959  2.000002            0           0           0  
      2.471165  1.940521  8.225758            0           0           0  
      3.737772  1.228619  4.034573            0           0           0  
      2.486537  0.521430  6.026823            0           0           0  
      4.983685  1.947959  2.000002            0           0           0  
      4.993981  1.942391  8.219123            0           0           0  
      6.229617  1.228619  4.034573            0           0           0  
      4.985557  0.521407  6.026022            0           0           0  
      7.475530  1.947959  2.000002            0           0           0  
      7.516013  1.962977  8.057244            0           0           0  
      8.721462  1.228619  4.034573            0           0           0  
      7.471335  0.511889  6.004805            0           0           0  
     -1.245927  4.105960  2.000002            0           0           0  
     -1.248470  4.078977  8.072314            0           0           0  
      0.000005  3.386620  4.034573            0           0           0  
     -1.247521  2.672845  6.042991            0           0           0  
      1.245918  4.105960  2.000002            0           0           0  
      1.223427  4.119352  7.951878            0           0           0  
      2.491850  3.386620  4.034573            0           0           0  
      1.251844  2.659508  6.027350            0           0           0  
      3.737763  4.105960  2.000002            0           0           0  
      3.734279  4.128690  8.225353            0           0           0  
      4.983695  3.386620  4.034573            0           0           0  
      3.735519  2.668819  6.073169            0           0           0  
      6.229608  4.105960  2.000002            0           0           0  
      6.246677  4.119820  7.950997            0           0           0  
      7.475540  3.386620  4.034573            0           0           0  
      6.220281  2.659868  6.026028            0           0           0  
     -2.491850  6.263961  2.000002            0           0           0  
     -2.519087  6.280170  8.072400            0           0           0  
     -1.245918  5.544621  4.034573            0           0           0  
     -2.492936  4.826195  6.005450            0           0           0  
     -0.000005  6.263961  2.000002            0           0           0  
      0.022521  6.280330  8.072203            0           0           0  
      1.245927  5.544621  4.034573            0           0           0  
     -0.001187  4.826161  6.005495            0           0           0  
      2.491840  6.263961  2.000002            0           0           0  
      2.455846  6.299686  8.057874            0           0           0  
      3.737772  5.544621  4.034573            0           0           0  
      2.501659  4.824314  6.027295            0           0           0  
      4.983685  6.263961  2.000002            0           0           0  
      5.014335  6.298672  8.057233            0           0           0  
      6.229617  5.544621  4.034573            0           0           0  
      4.970766  4.824161  6.026738            0           0           0  
     -3.737772  8.421962  2.000002            0           0           0  
     -3.752032  8.378972  8.057498            0           0           0  
     -2.491840  7.702622  4.034573            0           0           0  
     -3.734790  6.981874  6.042922            0           0           0  
     -1.245927  8.421962  2.000002            0           0           0  
     -1.249054  8.400937  7.951153            0           0           0  
      0.000005  7.702622  4.034573            0           0           0  
     -1.247076  6.984140  6.005478            0           0           0  
      1.245918  8.421962  2.000002            0           0           0  
      1.253454  8.380063  8.057284            0           0           0  
      2.491850  7.702622  4.034573            0           0           0  
      1.240463  6.982209  6.042934            0           0           0  
      3.737763  8.421962  2.000002            0           0           0  
      3.734376  8.424240  7.956228            0           0           0  
      4.983695  7.702622  4.034573            0           0           0  
      3.736527  6.981293  6.004837            0           0           0  
      1.116492  1.157844  9.203828            0           0           0  
      3.735131  5.693197  9.203758            0           0           0  
     -1.248179  5.546393  9.180705            0           0           0  
      6.346887  1.161450  9.200986            0           0           0  
      3.734541  2.670173  9.313324     0.439158    0.898384    0.006739  
 
   3 f  =   12.929373 THz    81.237645 2PiTHz  431.277441 cm-1    53.471607 meV
             X         Y         Z           dx          dy          dz
     -0.000005  1.947959  2.000002            0           0           0  
     -0.048574  1.961931  8.057896            0           0           0  
      1.245927  1.228619  4.034573            0           0           0  
      0.001251  0.511619  6.004894            0           0           0  
      2.491840  1.947959  2.000002            0           0           0  
      2.471165  1.940521  8.225758            0           0           0  
      3.737772  1.228619  4.034573            0           0           0  
      2.486537  0.521430  6.026823            0           0           0  
      4.983685  1.947959  2.000002            0           0           0  
      4.993981  1.942391  8.219123            0           0           0  
      6.229617  1.228619  4.034573            0           0           0  
      4.985557  0.521407  6.026022            0           0           0  
      7.475530  1.947959  2.000002            0           0           0  
      7.516013  1.962977  8.057244            0           0           0  
      8.721462  1.228619  4.034573            0           0           0  
      7.471335  0.511889  6.004805            0           0           0  
     -1.245927  4.105960  2.000002            0           0           0  
     -1.248470  4.078977  8.072314            0           0           0  
      0.000005  3.386620  4.034573            0           0           0  
     -1.247521  2.672845  6.042991            0           0           0  
      1.245918  4.105960  2.000002            0           0           0  
      1.223427  4.119352  7.951878            0           0           0  
      2.491850  3.386620  4.034573            0           0           0  
      1.251844  2.659508  6.027350            0           0           0  
      3.737763  4.105960  2.000002            0           0           0  
      3.734279  4.128690  8.225353            0           0           0  
      4.983695  3.386620  4.034573            0           0           0  
      3.735519  2.668819  6.073169            0           0           0  
      6.229608  4.105960  2.000002            0           0           0  
      6.246677  4.119820  7.950997            0           0           0  
      7.475540  3.386620  4.034573            0           0           0  
      6.220281  2.659868  6.026028            0           0           0  
     -2.491850  6.263961  2.000002            0           0           0  
     -2.519087  6.280170  8.072400            0           0           0  
     -1.245918  5.544621  4.034573            0           0           0  
     -2.492936  4.826195  6.005450            0           0           0  
     -0.000005  6.263961  2.000002            0           0           0  
      0.022521  6.280330  8.072203            0           0           0  
      1.245927  5.544621  4.034573            0           0           0  
     -0.001187  4.826161  6.005495            0           0           0  
      2.491840  6.263961  2.000002            0           0           0  
      2.455846  6.299686  8.057874            0           0           0  
      3.737772  5.544621  4.034573            0           0           0  
      2.501659  4.824314  6.027295            0           0           0  
      4.983685  6.263961  2.000002            0           0           0  
      5.014335  6.298672  8.057233            0           0           0  
      6.229617  5.544621  4.034573            0           0           0  
      4.970766  4.824161  6.026738            0           0           0  
     -3.737772  8.421962  2.000002            0           0           0  
     -3.752032  8.378972  8.057498            0           0           0  
     -2.491840  7.702622  4.034573            0           0           0  
     -3.734790  6.981874  6.042922            0           0           0  
     -1.245927  8.421962  2.000002            0           0           0  
     -1.249054  8.400937  7.951153            0           0           0  
      0.000005  7.702622  4.034573            0           0           0  
     -1.247076  6.984140  6.005478            0           0           0  
      1.245918  8.421962  2.000002            0           0           0  
      1.253454  8.380063  8.057284            0           0           0  
      2.491850  7.702622  4.034573            0           0           0  
      1.240463  6.982209  6.042934            0           0           0  
      3.737763  8.421962  2.000002            0           0           0  
      3.734376  8.424240  7.956228            0           0           0  
      4.983695  7.702622  4.034573            0           0           0  
      3.736527  6.981293  6.004837            0           0           0  
      1.116492  1.157844  9.203828            0           0           0  
      3.735131  5.693197  9.203758            0           0           0  
     -1.248179  5.546393  9.180705            0           0           0  
      6.346887  1.161450  9.200986            0           0           0  
      3.734541  2.670173  9.313324    -0.898394    0.439093    0.009262  
 
 Finite differences POTIM=  1.500000000000000E-002
     LOOP+:  cpu time   49.5985: real time   49.8803
    4ORBIT:  cpu time    0.0000: real time    0.0000
 


 total charge     
 
# of ion       s       p       d       tot
------------------------------------------
    1        0.484   0.358   8.331   9.173
    2        0.496   0.516   8.346   9.357
    3        0.493   0.489   8.340   9.322
    4        0.495   0.489   8.351   9.335
    5        0.484   0.357   8.332   9.173
    6        0.477   0.587   8.345   9.408
    7        0.487   0.484   8.339   9.310
    8        0.493   0.481   8.345   9.320
    9        0.484   0.357   8.332   9.173
   10        0.477   0.588   8.345   9.410
   11        0.493   0.489   8.340   9.322
   12        0.494   0.482   8.345   9.321
   13        0.484   0.358   8.331   9.173
   14        0.496   0.516   8.346   9.357
   15        0.491   0.488   8.343   9.321
   16        0.495   0.489   8.351   9.335
   17        0.484   0.358   8.329   9.171
   18        0.490   0.501   8.338   9.329
   19        0.489   0.485   8.344   9.318
   20        0.502   0.500   8.336   9.339
   21        0.483   0.358   8.330   9.171
   22        0.474   0.361   8.390   9.226
   23        0.487   0.483   8.339   9.310
   24        0.493   0.481   8.345   9.320
   25        0.484   0.357   8.332   9.173
   26        0.477   0.587   8.345   9.408
   27        0.487   0.484   8.339   9.310
   28        0.483   0.460   8.334   9.276
   29        0.483   0.358   8.330   9.171
   30        0.475   0.361   8.390   9.226
   31        0.489   0.485   8.344   9.318
   32        0.494   0.482   8.345   9.321
   33        0.484   0.358   8.329   9.171
   34        0.490   0.501   8.337   9.328
   35        0.494   0.490   8.342   9.326
   36        0.495   0.488   8.350   9.333
   37        0.484   0.358   8.329   9.171
   38        0.490   0.501   8.337   9.328
   39        0.489   0.485   8.344   9.318
   40        0.495   0.488   8.350   9.333
   41        0.484   0.358   8.331   9.172
   42        0.496   0.516   8.345   9.357
   43        0.493   0.489   8.339   9.321
   44        0.493   0.481   8.345   9.320
   45        0.484   0.358   8.331   9.172
   46        0.496   0.516   8.346   9.357
   47        0.489   0.485   8.344   9.318
   48        0.493   0.481   8.345   9.320
   49        0.484   0.358   8.331   9.173
   50        0.496   0.516   8.345   9.357
   51        0.489   0.485   8.344   9.318
   52        0.502   0.500   8.336   9.339
   53        0.483   0.358   8.331   9.172
   54        0.475   0.361   8.390   9.225
   55        0.489   0.485   8.344   9.318
   56        0.495   0.488   8.350   9.333
   57        0.484   0.358   8.331   9.173
   58        0.496   0.516   8.345   9.357
   59        0.491   0.488   8.343   9.321
   60        0.502   0.500   8.336   9.339
   61        0.483   0.356   8.333   9.173
   62        0.473   0.364   8.390   9.227
   63        0.491   0.488   8.343   9.321
   64        0.495   0.489   8.351   9.335
   65        1.585   3.334   0.000   4.919
   66        1.585   3.334   0.000   4.919
   67        1.583   3.331   0.000   4.914
   68        1.585   3.334   0.000   4.919
   69        1.587   3.344   0.000   4.931
--------------------------------------------------
tot         39.198  45.771 533.958 618.926
 

 total amount of memory used by VASP MPI-rank0    52851. kBytes
=======================================================================

   base      :      30000. kBytes
   nonlr-proj:       3927. kBytes
   fftplans  :       5964. kBytes
   grid      :      10693. kBytes
   one-center:         23. kBytes
   wavefun   :       2244. kBytes
 
  
  
 General timing and accounting informations for this job:
 ========================================================
  
                  Total CPU time used (sec):      357.302
                            User time (sec):      351.069
                          System time (sec):        6.233
                         Elapsed time (sec):      359.816
  
                   Maximum memory used (kb):      290476.
                   Average memory used (kb):           0.
  
                          Minor page faults:      1726746
                          Major page faults:            3
                 Voluntary context switches:         1527
