  64  64   1   0
  0.2948698E+02  0.1011163E-08  0.1011163E-08  0.2131265E-08  0.5000000E-15
  1.000000000000000E-004
  CAR 
 SQS-NiFe                                
      9.27161374    -10.49411988  301     -0.28440910      1.00000000
    -10.494  0.0000E+00  0.0000E+00  0.0000E+00  0.0000E+00
    -10.428  0.0000E+00  0.0000E+00  0.0000E+00  0.0000E+00
    -10.362  0.0000E+00  0.0000E+00  0.0000E+00  0.0000E+00
    -10.296  0.0000E+00  0.0000E+00  0.0000E+00  0.0000E+00
    -10.231  0.0000E+00  0.0000E+00  0.0000E+00  0.0000E+00
    -10.165  0.0000E+00  0.0000E+00  0.0000E+00  0.0000E+00
    -10.099 -0.4248E-29  0.0000E+00 -0.2799E-30  0.0000E+00
    -10.033 -0.7180E-27  0.0000E+00 -0.4759E-28  0.0000E+00
     -9.967 -0.9793E-25 -0.1569E-30 -0.6500E-26 -0.1033E-31
     -9.901 -0.1073E-22 -0.3039E-28 -0.7131E-24 -0.2013E-29
     -9.835 -0.9429E-21 -0.4749E-26 -0.6284E-22 -0.3149E-27
     -9.769 -0.6653E-19 -0.5961E-24 -0.4446E-20 -0.3959E-25
     -9.703 -0.3765E-17 -0.6007E-22 -0.2525E-18 -0.3997E-23
     -9.638 -0.1652E-15 -0.4859E-20 -0.1114E-16 -0.3241E-21
     -9.572 -0.6003E-14 -0.3153E-18 -0.4066E-15 -0.2110E-19
     -9.506 -0.1740E-12 -0.1641E-16 -0.1187E-13 -0.1103E-17
     -9.440 -0.4029E-11 -0.6632E-15 -0.2773E-12 -0.4480E-16
     -9.374 -0.7447E-10 -0.2208E-13 -0.5184E-11 -0.1500E-14
     -9.308 -0.1097E-08 -0.5879E-12 -0.7743E-10 -0.4023E-13
     -9.242 -0.1283E-07 -0.1250E-10 -0.9226E-09 -0.8640E-12
     -9.176 -0.1188E-06 -0.2121E-09 -0.8752E-08 -0.1484E-10
     -9.111 -0.8675E-06 -0.2863E-08 -0.6590E-07 -0.2034E-09
     -9.045 -0.4955E-05 -0.3067E-07 -0.3924E-06 -0.2224E-08
     -8.979 -0.2191E-04 -0.2597E-06 -0.1836E-05 -0.1934E-07
     -8.913 -0.7371E-04 -0.1729E-05 -0.6693E-05 -0.1333E-06
     -8.847 -0.1827E-03 -0.8979E-05 -0.1873E-04 -0.7249E-06
     -8.781 -0.3104E-03 -0.3589E-04 -0.3918E-04 -0.3089E-05
     -8.715 -0.2804E-03 -0.1081E-03 -0.5765E-04 -0.1021E-04
     -8.649  0.1582E-03 -0.2350E-03 -0.4723E-04 -0.2569E-04
     -8.583  0.1133E-02 -0.3316E-03  0.2742E-04 -0.4754E-04
     -8.518  0.2843E-02 -0.1734E-03  0.2147E-03 -0.5896E-04
     -8.452  0.6298E-02  0.4623E-03  0.6296E-03 -0.2851E-04
     -8.386  0.1291E-01  0.1665E-02  0.1480E-02  0.8117E-04
     -8.320  0.2168E-01  0.3859E-02  0.2909E-02  0.3355E-03
     -8.254  0.2753E-01  0.8394E-02  0.4722E-02  0.8885E-03
     -8.188  0.2527E-01  0.1617E-01  0.6387E-02  0.1954E-02
     -8.122  0.1582E-01  0.2457E-01  0.7430E-02  0.3572E-02
     -8.056  0.6175E-02  0.2773E-01  0.7836E-02  0.5399E-02
     -7.990  0.3139E-02  0.2234E-01  0.8043E-02  0.6871E-02
     -7.925  0.8194E-02  0.1215E-01  0.8583E-02  0.7671E-02
     -7.859  0.1759E-01  0.4742E-02  0.9742E-02  0.7983E-02
     -7.793  0.2620E-01  0.4648E-02  0.1147E-01  0.8290E-02
     -7.727  0.3159E-01  0.1064E-01  0.1355E-01  0.8991E-02
     -7.661  0.3407E-01  0.1851E-01  0.1579E-01  0.1021E-01
     -7.595  0.3333E-01  0.2522E-01  0.1799E-01  0.1187E-01
     -7.529  0.2761E-01  0.3040E-01  0.1981E-01  0.1388E-01
     -7.463  0.1745E-01  0.3393E-01  0.2096E-01  0.1611E-01
     -7.397  0.7099E-02  0.3351E-01  0.2143E-01  0.1832E-01
     -7.332  0.8795E-03  0.2680E-01  0.2148E-01  0.2008E-01
     -7.266  0.7671E-03  0.1557E-01  0.2153E-01  0.2111E-01
     -7.200  0.8619E-02  0.5111E-02  0.2210E-01  0.2145E-01
     -7.134  0.2659E-01 -0.6988E-03  0.2385E-01  0.2140E-01
     -7.068  0.5159E-01 -0.1244E-02  0.2725E-01  0.2132E-01
     -7.002  0.7145E-01  0.4337E-02  0.3196E-01  0.2160E-01
     -6.936  0.7278E-01  0.1921E-01  0.3676E-01  0.2287E-01
     -6.870  0.5519E-01  0.4361E-01  0.4039E-01  0.2574E-01
     -6.805  0.3428E-01  0.6801E-01  0.4265E-01  0.3022E-01
     -6.739  0.2725E-01  0.7699E-01  0.4445E-01  0.3530E-01
     -6.673  0.3688E-01  0.6404E-01  0.4688E-01  0.3952E-01
     -6.607  0.5158E-01  0.3988E-01  0.5027E-01  0.4214E-01
     -6.541  0.5861E-01  0.2296E-01  0.5414E-01  0.4366E-01
     -6.475  0.5390E-01  0.2301E-01  0.5769E-01  0.4517E-01
     -6.409  0.4034E-01  0.3539E-01  0.6035E-01  0.4750E-01
     -6.343  0.2293E-01  0.4866E-01  0.6186E-01  0.5071E-01
     -6.277  0.7752E-02  0.5455E-01  0.6237E-01  0.5430E-01
     -6.212  0.2505E-02  0.5113E-01  0.6253E-01  0.5767E-01
     -6.146  0.1431E-01  0.4011E-01  0.6348E-01  0.6031E-01
     -6.080  0.4494E-01  0.2477E-01  0.6644E-01  0.6195E-01
     -6.014  0.8542E-01  0.1028E-01  0.7206E-01  0.6262E-01
     -5.948  0.1164E+00  0.2636E-02  0.7973E-01  0.6280E-01
     -5.882  0.1212E+00  0.6029E-02  0.8771E-01  0.6319E-01
     -5.816  0.1035E+00  0.2232E-01  0.9453E-01  0.6467E-01
     -5.750  0.8460E-01  0.5099E-01  0.1001E+00  0.6803E-01
     -5.684  0.7794E-01  0.8546E-01  0.1052E+00  0.7366E-01
     -5.619  0.7351E-01  0.1102E+00  0.1101E+00  0.8092E-01
     -5.553  0.5524E-01  0.1093E+00  0.1137E+00  0.8812E-01
     -5.487  0.2775E-01  0.8225E-01  0.1156E+00  0.9354E-01
     -5.421  0.1872E-01  0.4794E-01  0.1168E+00  0.9670E-01
     -5.355  0.5689E-01  0.2916E-01  0.1205E+00  0.9862E-01
     -5.289  0.1476E+00  0.3451E-01  0.1303E+00  0.1009E+00
     -5.223  0.2618E+00  0.5414E-01  0.1475E+00  0.1045E+00
     -5.157  0.3494E+00  0.6881E-01  0.1705E+00  0.1090E+00
     -5.091  0.3720E+00  0.6435E-01  0.1950E+00  0.1132E+00
     -5.026  0.3319E+00  0.4241E-01  0.2169E+00  0.1160E+00
     -4.960  0.2688E+00  0.1906E-01  0.2346E+00  0.1173E+00
     -4.894  0.2305E+00  0.1293E-01  0.2498E+00  0.1181E+00
     -4.828  0.2438E+00  0.3403E-01  0.2659E+00  0.1204E+00
     -4.762  0.3025E+00  0.7925E-01  0.2858E+00  0.1256E+00
     -4.696  0.3773E+00  0.1321E+00  0.3106E+00  0.1343E+00
     -4.630  0.4412E+00  0.1686E+00  0.3397E+00  0.1454E+00
     -4.564  0.4882E+00  0.1728E+00  0.3719E+00  0.1568E+00
     -4.499  0.5277E+00  0.1484E+00  0.4067E+00  0.1666E+00
     -4.433  0.5662E+00  0.1133E+00  0.4440E+00  0.1740E+00
     -4.367  0.5966E+00  0.8321E-01  0.4833E+00  0.1795E+00
     -4.301  0.6057E+00  0.6470E-01  0.5232E+00  0.1838E+00
     -4.235  0.5887E+00  0.6041E-01  0.5620E+00  0.1878E+00
     -4.169  0.5579E+00  0.7225E-01  0.5987E+00  0.1925E+00
     -4.103  0.5338E+00  0.1001E+00  0.6339E+00  0.1991E+00
     -4.037  0.5278E+00  0.1415E+00  0.6687E+00  0.2084E+00
     -3.971  0.5339E+00  0.1912E+00  0.7038E+00  0.2210E+00
     -3.906  0.5390E+00  0.2377E+00  0.7394E+00  0.2367E+00
     -3.840  0.5380E+00  0.2661E+00  0.7748E+00  0.2542E+00
     -3.774  0.5365E+00  0.2686E+00  0.8101E+00  0.2719E+00
     -3.708  0.5418E+00  0.2511E+00  0.8458E+00  0.2885E+00
     -3.642  0.5557E+00  0.2300E+00  0.8825E+00  0.3036E+00
     -3.576  0.5739E+00  0.2223E+00  0.9203E+00  0.3183E+00
     -3.510  0.5868E+00  0.2347E+00  0.9589E+00  0.3337E+00
     -3.444  0.5829E+00  0.2577E+00  0.9973E+00  0.3507E+00
     -3.378  0.5602E+00  0.2781E+00  0.1034E+01  0.3690E+00
     -3.313  0.5357E+00  0.2943E+00  0.1070E+01  0.3884E+00
     -3.247  0.5375E+00  0.3155E+00  0.1105E+01  0.4092E+00
     -3.181  0.5834E+00  0.3458E+00  0.1143E+01  0.4320E+00
     -3.115  0.6682E+00  0.3789E+00  0.1187E+01  0.4569E+00
     -3.049  0.7722E+00  0.4057E+00  0.1238E+01  0.4837E+00
     -2.983  0.8764E+00  0.4198E+00  0.1296E+01  0.5113E+00
     -2.917  0.9697E+00  0.4191E+00  0.1360E+01  0.5389E+00
     -2.851  0.1045E+01  0.4082E+00  0.1429E+01  0.5658E+00
     -2.785  0.1098E+01  0.3978E+00  0.1501E+01  0.5921E+00
     -2.720  0.1124E+01  0.3976E+00  0.1575E+01  0.6182E+00
     -2.654  0.1127E+01  0.4102E+00  0.1649E+01  0.6453E+00
     -2.588  0.1108E+01  0.4294E+00  0.1722E+01  0.6736E+00
     -2.522  0.1065E+01  0.4442E+00  0.1793E+01  0.7028E+00
     -2.456  0.9854E+00  0.4477E+00  0.1858E+01  0.7323E+00
     -2.390  0.8761E+00  0.4441E+00  0.1915E+01  0.7616E+00
     -2.324  0.7814E+00  0.4442E+00  0.1967E+01  0.7909E+00
     -2.258  0.7562E+00  0.4550E+00  0.2017E+01  0.8208E+00
     -2.193  0.8064E+00  0.4757E+00  0.2070E+01  0.8522E+00
     -2.127  0.8719E+00  0.4997E+00  0.2127E+01  0.8851E+00
     -2.061  0.8812E+00  0.5173E+00  0.2185E+01  0.9192E+00
     -1.995  0.8214E+00  0.5221E+00  0.2239E+01  0.9536E+00
     -1.929  0.7480E+00  0.5154E+00  0.2289E+01  0.9875E+00
     -1.863  0.7299E+00  0.5055E+00  0.2337E+01  0.1021E+01
     -1.797  0.7886E+00  0.4999E+00  0.2389E+01  0.1054E+01
     -1.731  0.8888E+00  0.5019E+00  0.2447E+01  0.1087E+01
     -1.665  0.9733E+00  0.5129E+00  0.2511E+01  0.1121E+01
     -1.600  0.1003E+01  0.5359E+00  0.2577E+01  0.1156E+01
     -1.534  0.9754E+00  0.5740E+00  0.2642E+01  0.1194E+01
     -1.468  0.9210E+00  0.6229E+00  0.2702E+01  0.1235E+01
     -1.402  0.8765E+00  0.6686E+00  0.2760E+01  0.1279E+01
     -1.336  0.8595E+00  0.6956E+00  0.2817E+01  0.1325E+01
     -1.270  0.8646E+00  0.6977E+00  0.2874E+01  0.1371E+01
     -1.204  0.8809E+00  0.6805E+00  0.2932E+01  0.1415E+01
     -1.138  0.9061E+00  0.6549E+00  0.2991E+01  0.1459E+01
     -1.072  0.9381E+00  0.6326E+00  0.3053E+01  0.1500E+01
     -1.007  0.9585E+00  0.6239E+00  0.3116E+01  0.1541E+01
     -0.941  0.9384E+00  0.6324E+00  0.3178E+01  0.1583E+01
     -0.875  0.8644E+00  0.6504E+00  0.3235E+01  0.1626E+01
     -0.809  0.7518E+00  0.6655E+00  0.3285E+01  0.1670E+01
     -0.743  0.6287E+00  0.6733E+00  0.3326E+01  0.1714E+01
     -0.677  0.5106E+00  0.6792E+00  0.3360E+01  0.1759E+01
     -0.611  0.3982E+00  0.6892E+00  0.3386E+01  0.1804E+01
     -0.545  0.2941E+00  0.7020E+00  0.3405E+01  0.1851E+01
     -0.479  0.2081E+00  0.7106E+00  0.3419E+01  0.1897E+01
     -0.414  0.1474E+00  0.7097E+00  0.3429E+01  0.1944E+01
     -0.348  0.1101E+00  0.6980E+00  0.3436E+01  0.1990E+01
     -0.282  0.8949E-01  0.6768E+00  0.3442E+01  0.2035E+01
     -0.216  0.8135E-01  0.6493E+00  0.3447E+01  0.2078E+01
     -0.150  0.8610E-01  0.6208E+00  0.3453E+01  0.2118E+01
     -0.084  0.1066E+00  0.5986E+00  0.3460E+01  0.2158E+01
     -0.018  0.1399E+00  0.5878E+00  0.3469E+01  0.2197E+01
      0.048  0.1706E+00  0.5885E+00  0.3480E+01  0.2235E+01
      0.113  0.1793E+00  0.5945E+00  0.3492E+01  0.2275E+01
      0.179  0.1604E+00  0.5961E+00  0.3503E+01  0.2314E+01
      0.245  0.1271E+00  0.5867E+00  0.3511E+01  0.2352E+01
      0.311  0.9807E-01  0.5679E+00  0.3518E+01  0.2390E+01
      0.377  0.8148E-01  0.5476E+00  0.3523E+01  0.2426E+01
      0.443  0.7370E-01  0.5321E+00  0.3528E+01  0.2461E+01
      0.509  0.6942E-01  0.5225E+00  0.3532E+01  0.2495E+01
      0.575  0.6716E-01  0.5177E+00  0.3537E+01  0.2530E+01
      0.641  0.6529E-01  0.5196E+00  0.3541E+01  0.2564E+01
      0.706  0.5972E-01  0.5329E+00  0.3545E+01  0.2599E+01
      0.772  0.5090E-01  0.5603E+00  0.3548E+01  0.2636E+01
      0.838  0.4883E-01  0.5962E+00  0.3552E+01  0.2675E+01
      0.904  0.6385E-01  0.6288E+00  0.3556E+01  0.2717E+01
      0.970  0.9357E-01  0.6487E+00  0.3562E+01  0.2759E+01
      1.036  0.1246E+00  0.6562E+00  0.3570E+01  0.2802E+01
      1.102  0.1448E+00  0.6597E+00  0.3580E+01  0.2846E+01
      1.168  0.1500E+00  0.6661E+00  0.3590E+01  0.2890E+01
      1.234  0.1431E+00  0.6746E+00  0.3599E+01  0.2934E+01
      1.299  0.1363E+00  0.6817E+00  0.3608E+01  0.2979E+01
      1.365  0.1459E+00  0.6875E+00  0.3618E+01  0.3024E+01
      1.431  0.1728E+00  0.6985E+00  0.3629E+01  0.3071E+01
      1.497  0.1936E+00  0.7198E+00  0.3642E+01  0.3118E+01
      1.563  0.1817E+00  0.7478E+00  0.3654E+01  0.3167E+01
      1.629  0.1363E+00  0.7695E+00  0.3663E+01  0.3218E+01
      1.695  0.8253E-01  0.7711E+00  0.3668E+01  0.3269E+01
      1.761  0.4423E-01  0.7438E+00  0.3671E+01  0.3318E+01
      1.827  0.2553E-01  0.6854E+00  0.3673E+01  0.3363E+01
      1.892  0.1862E-01  0.6015E+00  0.3674E+01  0.3402E+01
      1.958  0.2042E-01  0.5086E+00  0.3675E+01  0.3436E+01
      2.024  0.3578E-01  0.4279E+00  0.3678E+01  0.3464E+01
      2.090  0.6624E-01  0.3673E+00  0.3682E+01  0.3488E+01
      2.156  0.1017E+00  0.3126E+00  0.3689E+01  0.3509E+01
      2.222  0.1260E+00  0.2472E+00  0.3697E+01  0.3525E+01
      2.288  0.1280E+00  0.1741E+00  0.3706E+01  0.3537E+01
      2.354  0.1079E+00  0.1152E+00  0.3713E+01  0.3544E+01
      2.419  0.7507E-01  0.8844E-01  0.3718E+01  0.3550E+01
      2.485  0.4696E-01  0.9369E-01  0.3721E+01  0.3556E+01
      2.551  0.4472E-01  0.1182E+00  0.3724E+01  0.3564E+01
      2.617  0.7992E-01  0.1488E+00  0.3729E+01  0.3574E+01
      2.683  0.1399E+00  0.1762E+00  0.3738E+01  0.3586E+01
      2.749  0.1900E+00  0.1927E+00  0.3751E+01  0.3598E+01
      2.815  0.1984E+00  0.1942E+00  0.3764E+01  0.3611E+01
      2.881  0.1600E+00  0.1824E+00  0.3774E+01  0.3623E+01
      2.947  0.9684E-01  0.1639E+00  0.3781E+01  0.3634E+01
      3.012  0.3785E-01  0.1467E+00  0.3783E+01  0.3644E+01
      3.078  0.1408E-02  0.1350E+00  0.3783E+01  0.3652E+01
      3.144 -0.5634E-02  0.1280E+00  0.3783E+01  0.3661E+01
      3.210  0.2036E-01  0.1245E+00  0.3784E+01  0.3669E+01
      3.276  0.8055E-01  0.1261E+00  0.3790E+01  0.3677E+01
      3.342  0.1622E+00  0.1344E+00  0.3800E+01  0.3686E+01
      3.408  0.2319E+00  0.1443E+00  0.3816E+01  0.3696E+01
      3.474  0.2517E+00  0.1435E+00  0.3832E+01  0.3705E+01
      3.540  0.2096E+00  0.1225E+00  0.3846E+01  0.3713E+01
      3.605  0.1319E+00  0.8710E-01  0.3855E+01  0.3719E+01
      3.671  0.6106E-01  0.5866E-01  0.3859E+01  0.3723E+01
      3.737  0.2288E-01  0.5612E-01  0.3860E+01  0.3727E+01
      3.803  0.1428E-01  0.7788E-01  0.3861E+01  0.3732E+01
      3.869  0.1749E-01  0.1048E+00  0.3862E+01  0.3739E+01
      3.935  0.1994E-01  0.1205E+00  0.3864E+01  0.3747E+01
      4.001  0.2090E-01  0.1242E+00  0.3865E+01  0.3755E+01
      4.067  0.2505E-01  0.1229E+00  0.3867E+01  0.3763E+01
      4.133  0.3538E-01  0.1197E+00  0.3869E+01  0.3771E+01
      4.198  0.5129E-01  0.1153E+00  0.3872E+01  0.3778E+01
      4.264  0.6952E-01  0.1162E+00  0.3877E+01  0.3786E+01
      4.330  0.8706E-01  0.1312E+00  0.3883E+01  0.3795E+01
      4.396  0.1044E+00  0.1596E+00  0.3889E+01  0.3805E+01
      4.462  0.1227E+00  0.1873E+00  0.3898E+01  0.3817E+01
      4.528  0.1357E+00  0.1995E+00  0.3907E+01  0.3831E+01
      4.594  0.1317E+00  0.1936E+00  0.3915E+01  0.3843E+01
      4.660  0.1083E+00  0.1755E+00  0.3922E+01  0.3855E+01
      4.725  0.8223E-01  0.1488E+00  0.3928E+01  0.3865E+01
      4.791  0.7613E-01  0.1133E+00  0.3933E+01  0.3872E+01
      4.857  0.9627E-01  0.7536E-01  0.3939E+01  0.3877E+01
      4.923  0.1252E+00  0.5110E-01  0.3947E+01  0.3881E+01
      4.989  0.1375E+00  0.5331E-01  0.3956E+01  0.3884E+01
      5.055  0.1214E+00  0.7856E-01  0.3964E+01  0.3889E+01
      5.121  0.8607E-01  0.1092E+00  0.3970E+01  0.3896E+01
      5.187  0.5217E-01  0.1272E+00  0.3974E+01  0.3905E+01
      5.253  0.3561E-01  0.1260E+00  0.3976E+01  0.3913E+01
      5.318  0.3681E-01  0.1134E+00  0.3978E+01  0.3921E+01
      5.384  0.4476E-01  0.1027E+00  0.3981E+01  0.3927E+01
      5.450  0.5311E-01  0.9972E-01  0.3985E+01  0.3934E+01
      5.516  0.6900E-01  0.9801E-01  0.3989E+01  0.3940E+01
      5.582  0.1010E+00  0.8808E-01  0.3996E+01  0.3946E+01
      5.648  0.1415E+00  0.7234E-01  0.4005E+01  0.3951E+01
      5.714  0.1694E+00  0.6643E-01  0.4016E+01  0.3955E+01
      5.780  0.1694E+00  0.8367E-01  0.4028E+01  0.3961E+01
      5.846  0.1476E+00  0.1196E+00  0.4037E+01  0.3969E+01
      5.911  0.1249E+00  0.1525E+00  0.4046E+01  0.3979E+01
      5.977  0.1174E+00  0.1597E+00  0.4053E+01  0.3989E+01
      6.043  0.1253E+00  0.1354E+00  0.4062E+01  0.3998E+01
      6.109  0.1378E+00  0.9603E-01  0.4071E+01  0.4004E+01
      6.175  0.1434E+00  0.6800E-01  0.4080E+01  0.4009E+01
      6.241  0.1361E+00  0.6884E-01  0.4089E+01  0.4013E+01
      6.307  0.1192E+00  0.9545E-01  0.4097E+01  0.4020E+01
      6.373  0.1035E+00  0.1280E+00  0.4104E+01  0.4028E+01
      6.439  0.9397E-01  0.1448E+00  0.4110E+01  0.4038E+01
      6.504  0.8276E-01  0.1377E+00  0.4115E+01  0.4047E+01
      6.570  0.6064E-01  0.1161E+00  0.4119E+01  0.4054E+01
      6.636  0.3159E-01  0.9809E-01  0.4121E+01  0.4061E+01
      6.702  0.8218E-02  0.9305E-01  0.4122E+01  0.4067E+01
      6.768 -0.2745E-02  0.9525E-01  0.4122E+01  0.4073E+01
      6.834 -0.4333E-02  0.9480E-01  0.4121E+01  0.4080E+01
      6.900 -0.2604E-02  0.9147E-01  0.4121E+01  0.4086E+01
      6.966 -0.1035E-02  0.9249E-01  0.4121E+01  0.4092E+01
      7.031 -0.3021E-03  0.9971E-01  0.4121E+01  0.4098E+01
      7.097 -0.6734E-04  0.1051E+00  0.4121E+01  0.4105E+01
      7.163 -0.1169E-04  0.9870E-01  0.4121E+01  0.4112E+01
      7.229 -0.1598E-05  0.7769E-01  0.4121E+01  0.4117E+01
      7.295 -0.1733E-06  0.4852E-01  0.4121E+01  0.4120E+01
      7.361 -0.1496E-07  0.2177E-01  0.4121E+01  0.4121E+01
      7.427 -0.1032E-08  0.4679E-02  0.4121E+01  0.4122E+01
      7.493 -0.5705E-10 -0.2292E-02  0.4121E+01  0.4122E+01
      7.559 -0.2528E-11 -0.3125E-02  0.4121E+01  0.4121E+01
      7.624 -0.8998E-13 -0.1932E-02  0.4121E+01  0.4121E+01
      7.690 -0.2580E-14 -0.8306E-03  0.4121E+01  0.4121E+01
      7.756 -0.5295E-16 -0.2709E-03  0.4121E+01  0.4121E+01
      7.822  0.0000E+00 -0.6909E-04  0.4121E+01  0.4121E+01
      7.888  0.0000E+00 -0.1396E-04  0.4121E+01  0.4121E+01
      7.954  0.0000E+00 -0.2247E-05  0.4121E+01  0.4121E+01
      8.020  0.0000E+00 -0.2892E-06  0.4121E+01  0.4121E+01
      8.086  0.0000E+00 -0.2979E-07  0.4121E+01  0.4121E+01
      8.152  0.0000E+00 -0.2458E-08  0.4121E+01  0.4121E+01
      8.217  0.0000E+00 -0.1626E-09  0.4121E+01  0.4121E+01
      8.283  0.0000E+00 -0.8618E-11  0.4121E+01  0.4121E+01
      8.349  0.0000E+00 -0.3664E-12  0.4121E+01  0.4121E+01
      8.415  0.0000E+00 -0.1249E-13  0.4121E+01  0.4121E+01
      8.481  0.0000E+00 -0.3480E-15  0.4121E+01  0.4121E+01
      8.547  0.0000E+00 -0.7565E-17  0.4121E+01  0.4121E+01
      8.613  0.0000E+00  0.0000E+00  0.4121E+01  0.4121E+01
      8.679  0.0000E+00  0.0000E+00  0.4121E+01  0.4121E+01
      8.745  0.0000E+00  0.0000E+00  0.4121E+01  0.4121E+01
      8.810  0.0000E+00  0.0000E+00  0.4121E+01  0.4121E+01
      8.876  0.0000E+00  0.0000E+00  0.4121E+01  0.4121E+01
      8.942  0.0000E+00  0.0000E+00  0.4121E+01  0.4121E+01
      9.008  0.0000E+00  0.0000E+00  0.4121E+01  0.4121E+01
      9.074  0.0000E+00  0.0000E+00  0.4121E+01  0.4121E+01
      9.140  0.0000E+00  0.0000E+00  0.4121E+01  0.4121E+01
      9.206  0.0000E+00  0.0000E+00  0.4121E+01  0.4121E+01
      9.272  0.0000E+00  0.0000E+00  0.4121E+01  0.4121E+01
      9.27161374    -10.49411988  301     -0.28440910      1.00000000
    -10.494  0.0000E+00  0.0000E+00  0.0000E+00  0.0000E+00  0.0000E+00  0.0000E+00
    -10.428  0.0000E+00  0.0000E+00  0.0000E+00  0.0000E+00  0.0000E+00  0.0000E+00
    -10.362  0.0000E+00  0.0000E+00  0.0000E+00  0.0000E+00  0.0000E+00  0.0000E+00
    -10.296  0.0000E+00  0.0000E+00  0.0000E+00  0.0000E+00  0.0000E+00  0.0000E+00
    -10.231  0.0000E+00  0.0000E+00  0.0000E+00  0.0000E+00  0.0000E+00  0.0000E+00
    -10.165  0.0000E+00  0.0000E+00  0.0000E+00  0.0000E+00  0.0000E+00  0.0000E+00
    -10.099 -0.6910E-29  0.0000E+00 -0.4196E-31  0.0000E+00 -0.2000E-31  0.0000E+00
    -10.033 -0.1168E-26  0.0000E+00 -0.7092E-29  0.0000E+00 -0.3380E-29  0.0000E+00
     -9.967 -0.1593E-24 -0.2497E-30 -0.9673E-27 -0.1803E-32 -0.4609E-27 -0.5535E-33
     -9.901 -0.1745E-22 -0.4838E-28 -0.1059E-24 -0.3493E-30 -0.5048E-25 -0.1072E-30
     -9.835 -0.1534E-20 -0.7561E-26 -0.9314E-23 -0.5459E-28 -0.4438E-23 -0.1676E-28
     -9.769 -0.1082E-18 -0.9490E-24 -0.6572E-21 -0.6852E-26 -0.3132E-21 -0.2103E-26
     -9.703 -0.6125E-17 -0.9563E-22 -0.3719E-19 -0.6905E-24 -0.1772E-19 -0.2120E-24
     -9.638 -0.2687E-15 -0.7735E-20 -0.1632E-17 -0.5585E-22 -0.7776E-18 -0.1714E-22
     -9.572 -0.9764E-14 -0.5020E-18 -0.5929E-16 -0.3625E-20 -0.2825E-16 -0.1113E-20
     -9.506 -0.2830E-12 -0.2613E-16 -0.1718E-14 -0.1887E-18 -0.8188E-15 -0.5792E-19
     -9.440 -0.6554E-11 -0.1056E-14 -0.3980E-13 -0.7623E-17 -0.1896E-13 -0.2340E-17
     -9.374 -0.1211E-09 -0.3516E-13 -0.7359E-12 -0.2538E-15 -0.3506E-12 -0.7792E-16
     -9.308 -0.1784E-08 -0.9360E-12 -0.1084E-10 -0.6758E-14 -0.5161E-11 -0.2075E-14
     -9.242 -0.2087E-07 -0.1991E-10 -0.1269E-09 -0.1437E-12 -0.6038E-10 -0.4412E-13
     -9.176 -0.1933E-06 -0.3376E-09 -0.1178E-08 -0.2439E-11 -0.5593E-09 -0.7483E-12
     -9.111 -0.1411E-05 -0.4558E-08 -0.8633E-08 -0.3293E-10 -0.4083E-08 -0.1010E-10
     -9.045 -0.8059E-05 -0.4883E-07 -0.4979E-07 -0.3532E-09 -0.2332E-07 -0.1082E-09
     -8.979 -0.3563E-04 -0.4135E-06 -0.2253E-06 -0.2997E-08 -0.1031E-06 -0.9165E-09
     -8.913 -0.1198E-03 -0.2753E-05 -0.8017E-06 -0.2006E-07 -0.3465E-06 -0.6102E-08
     -8.847 -0.2967E-03 -0.1429E-04 -0.2282E-05 -0.1054E-06 -0.8567E-06 -0.3168E-07
     -8.781 -0.5025E-03 -0.5712E-04 -0.5477E-05 -0.4335E-06 -0.1445E-05 -0.1266E-06
     -8.715 -0.4471E-03 -0.1719E-03 -0.1207E-04 -0.1400E-05 -0.1259E-05 -0.3808E-06
     -8.649  0.2834E-03 -0.3732E-03 -0.2499E-04 -0.3636E-05  0.9196E-06 -0.8260E-06
     -8.583  0.1894E-02 -0.5238E-03 -0.4052E-04 -0.8084E-05  0.5676E-05 -0.1155E-05
     -8.518  0.4673E-02 -0.2616E-03 -0.2124E-04 -0.1677E-04  0.1371E-04 -0.5592E-06
     -8.452  0.1018E-01  0.7722E-03  0.1257E-03 -0.3172E-04  0.2921E-04  0.1765E-05
     -8.386  0.2065E-01  0.2709E-02  0.4851E-03 -0.4012E-04  0.5822E-04  0.6094E-05
     -8.320  0.3453E-01  0.6171E-02  0.9767E-03  0.1863E-04  0.9618E-04  0.1372E-04
     -8.254  0.4378E-01  0.1321E-01  0.1302E-02  0.2532E-03  0.1201E-03  0.2902E-04
     -8.188  0.4019E-01  0.2523E-01  0.1183E-02  0.7069E-03  0.1068E-03  0.5488E-04
     -8.122  0.2510E-01  0.3820E-01  0.6924E-03  0.1200E-02  0.6222E-04  0.8232E-04
     -8.056  0.9569E-02  0.4308E-01  0.2608E-03  0.1385E-02  0.2379E-04  0.9135E-04
     -7.990  0.4484E-02  0.3474E-01  0.3442E-03  0.1091E-02  0.3040E-04  0.7139E-04
     -7.925  0.1242E-01  0.1896E-01  0.1073E-02  0.5713E-03  0.9116E-04  0.3790E-04
     -7.859  0.2737E-01  0.7415E-02  0.2170E-02  0.3234E-03  0.1838E-03  0.2117E-04
     -7.793  0.4066E-01  0.6966E-02  0.3233E-02  0.6610E-03  0.2864E-03  0.3891E-04
     -7.727  0.4801E-01  0.1565E-01  0.4097E-02  0.1477E-02  0.4024E-03  0.8296E-04
     -7.661  0.5053E-01  0.2705E-01  0.4759E-02  0.2411E-02  0.5279E-03  0.1344E-03
     -7.595  0.4880E-01  0.3667E-01  0.4956E-02  0.3252E-02  0.6010E-03  0.1903E-03
     -7.529  0.4047E-01  0.4397E-01  0.4255E-02  0.4078E-02  0.5401E-03  0.2643E-03
     -7.463  0.2570E-01  0.4878E-01  0.2716E-02  0.4857E-02  0.3474E-03  0.3482E-03
     -7.397  0.1014E-01  0.4792E-01  0.1058E-02  0.5078E-02  0.1231E-03  0.3879E-03
     -7.332 -0.1731E-03  0.3819E-01  0.1012E-04  0.4216E-02 -0.2167E-04  0.3312E-03
     -7.266 -0.3028E-02  0.2217E-01  0.6309E-05  0.2495E-02  0.2814E-04  0.1945E-03
     -7.200  0.2939E-02  0.7119E-02  0.1617E-02  0.7898E-03  0.4834E-03  0.5104E-04
     -7.134  0.2069E-01 -0.1726E-02  0.5508E-02 -0.2361E-03  0.1558E-02 -0.3950E-04
     -7.068  0.4901E-01 -0.3832E-02  0.1116E-01 -0.3972E-03  0.3080E-02 -0.3854E-04
     -7.002  0.7547E-01  0.1061E-02  0.1591E-01  0.7000E-03  0.4278E-02  0.1507E-03
     -6.936  0.8259E-01  0.1607E-01  0.1663E-01  0.3987E-02  0.4324E-02  0.6840E-03
     -6.870  0.6553E-01  0.4203E-01  0.1300E-01  0.9691E-02  0.3288E-02  0.1562E-02
     -6.805  0.3983E-01  0.6953E-01  0.8476E-02  0.1570E-01  0.2325E-02  0.2414E-02
     -6.739  0.2657E-01  0.8158E-01  0.7060E-02  0.1837E-01  0.2644E-02  0.2692E-02
     -6.673  0.3183E-01  0.6919E-01  0.9426E-02  0.1595E-01  0.4312E-02  0.2223E-02
     -6.607  0.4403E-01  0.4228E-01  0.1280E-01  0.1071E-01  0.6231E-02  0.1457E-02
     -6.541  0.4866E-01  0.2145E-01  0.1417E-01  0.6858E-02  0.7189E-02  0.1066E-02
     -6.475  0.4128E-01  0.1928E-01  0.1268E-01  0.6667E-02  0.6708E-02  0.1365E-02
     -6.409  0.2677E-01  0.3147E-01  0.9165E-02  0.9227E-02  0.4983E-02  0.2160E-02
     -6.343  0.1178E-01  0.4392E-01  0.4922E-02  0.1212E-01  0.2551E-02  0.3008E-02
     -6.277  0.1295E-02  0.4607E-01  0.1569E-02  0.1347E-01  0.3611E-03  0.3519E-02
     -6.212  0.3653E-03  0.3753E-01  0.1259E-02  0.1265E-01 -0.1711E-04  0.3467E-02
     -6.146  0.1438E-01  0.2421E-01  0.5934E-02  0.9841E-02  0.3359E-02  0.2801E-02
     -6.080  0.4414E-01  0.1157E-01  0.1572E-01  0.5901E-02  0.1156E-01  0.1709E-02
     -6.014  0.7951E-01  0.2463E-02  0.2745E-01  0.2398E-02  0.2270E-01  0.6434E-03
     -5.948  0.1016E+00 -0.9537E-03  0.3533E-01  0.1188E-02  0.3155E-01  0.1524E-03
     -5.882  0.9747E-01  0.4073E-02  0.3497E-01  0.3571E-02  0.3357E-01  0.6847E-03
     -5.816  0.7343E-01  0.2011E-01  0.2804E-01  0.9985E-02  0.3036E-01  0.2638E-02
     -5.750  0.4976E-01  0.4665E-01  0.2099E-01  0.1984E-01  0.2835E-01  0.6292E-02
     -5.684  0.3939E-01  0.7645E-01  0.1804E-01  0.3045E-01  0.2994E-01  0.1107E-01
     -5.619  0.3683E-01  0.9571E-01  0.1685E-01  0.3670E-01  0.2900E-01  0.1489E-01
     -5.553  0.2965E-01  0.9242E-01  0.1299E-01  0.3421E-01  0.1865E-01  0.1524E-01
     -5.487  0.1591E-01  0.6757E-01  0.6927E-02  0.2401E-01  0.3215E-02  0.1179E-01
     -5.421  0.7174E-02  0.3673E-01  0.4917E-02  0.1266E-01  0.1409E-02  0.7236E-02
     -5.355  0.1744E-01  0.1803E-01  0.1341E-01  0.7011E-02  0.3829E-01  0.5173E-02
     -5.289  0.5054E-01  0.1830E-01  0.3240E-01  0.9210E-02  0.1290E+00  0.7088E-02
     -5.223  0.9412E-01  0.3018E-01  0.5321E-01  0.1600E-01  0.2609E+00  0.1128E-01
     -5.157  0.1259E+00  0.3993E-01  0.6361E-01  0.2131E-01  0.3894E+00  0.1415E-01
     -5.091  0.1309E+00  0.3805E-01  0.5758E-01  0.2042E-01  0.4624E+00  0.1295E-01
     -5.026  0.1136E+00  0.2520E-01  0.4039E-01  0.1353E-01  0.4575E+00  0.8165E-02
     -4.960  0.9071E-01  0.1030E-01  0.2373E-01  0.5714E-02  0.4000E+00  0.3327E-02
     -4.894  0.7466E-01  0.3765E-02  0.1676E-01  0.3374E-02  0.3466E+00  0.2669E-02
     -4.828  0.6774E-01  0.1215E-01  0.2132E-01  0.1051E-01  0.3470E+00  0.8865E-02
     -4.762  0.6778E-01  0.3561E-01  0.3296E-01  0.2671E-01  0.4117E+00  0.2167E-01
     -4.696  0.7156E-01  0.6616E-01  0.4459E-01  0.4643E-01  0.5139E+00  0.3721E-01
     -4.630  0.7372E-01  0.8994E-01  0.5090E-01  0.6062E-01  0.6213E+00  0.4939E-01
     -4.564  0.6921E-01  0.9660E-01  0.5134E-01  0.6236E-01  0.7179E+00  0.5414E-01
     -4.499  0.5868E-01  0.8747E-01  0.4937E-01  0.5217E-01  0.7952E+00  0.5236E-01
     -4.433  0.4839E-01  0.7160E-01  0.4860E-01  0.3681E-01  0.8404E+00  0.4790E-01
     -4.367  0.4353E-01  0.5595E-01  0.4972E-01  0.2314E-01  0.8460E+00  0.4377E-01
     -4.301  0.4307E-01  0.4304E-01  0.5061E-01  0.1443E-01  0.8202E+00  0.4162E-01
     -4.235  0.4177E-01  0.3476E-01  0.4914E-01  0.1147E-01  0.7861E+00  0.4297E-01
     -4.169  0.3616E-01  0.3257E-01  0.4580E-01  0.1425E-01  0.7728E+00  0.4925E-01
     -4.103  0.2766E-01  0.3587E-01  0.4303E-01  0.2177E-01  0.7969E+00  0.6291E-01
     -4.037  0.2039E-01  0.4402E-01  0.4239E-01  0.3169E-01  0.8411E+00  0.8914E-01
     -3.971  0.1668E-01  0.5797E-01  0.4335E-01  0.4096E-01  0.8626E+00  0.1308E+00
     -3.906  0.1542E-01  0.7652E-01  0.4509E-01  0.4697E-01  0.8363E+00  0.1793E+00
     -3.840  0.1422E-01  0.9312E-01  0.4783E-01  0.4869E-01  0.7830E+00  0.2172E+00
     -3.774  0.1190E-01  0.1001E+00  0.5174E-01  0.4711E-01  0.7428E+00  0.2316E+00
     -3.708  0.9005E-02  0.9528E-01  0.5583E-01  0.4453E-01  0.7307E+00  0.2237E+00
     -3.642  0.6664E-02  0.8253E-01  0.5909E-01  0.4341E-01  0.7310E+00  0.2049E+00
     -3.576  0.5549E-02  0.6744E-01  0.6169E-01  0.4520E-01  0.7316E+00  0.1912E+00
     -3.510  0.5600E-02  0.5397E-01  0.6407E-01  0.4901E-01  0.7387E+00  0.1947E+00
     -3.444  0.6251E-02  0.4395E-01  0.6545E-01  0.5166E-01  0.7541E+00  0.2135E+00
     -3.378  0.6988E-02  0.3787E-01  0.6448E-01  0.5068E-01  0.7598E+00  0.2338E+00
     -3.313  0.7843E-02  0.3537E-01  0.6140E-01  0.4749E-01  0.7429E+00  0.2480E+00
     -3.247  0.9221E-02  0.3500E-01  0.5887E-01  0.4578E-01  0.7238E+00  0.2649E+00
     -3.181  0.1120E-01  0.3458E-01  0.6026E-01  0.4728E-01  0.7408E+00  0.2991E+00
     -3.115  0.1322E-01  0.3298E-01  0.6666E-01  0.5063E-01  0.8098E+00  0.3547E+00
     -3.049  0.1445E-01  0.3072E-01  0.7534E-01  0.5347E-01  0.9109E+00  0.4177E+00
     -2.983  0.1446E-01  0.2832E-01  0.8142E-01  0.5400E-01  0.1013E+01  0.4628E+00
     -2.917  0.1354E-01  0.2520E-01  0.8215E-01  0.5149E-01  0.1103E+01  0.4708E+00
     -2.851  0.1251E-01  0.2115E-01  0.7906E-01  0.4697E-01  0.1184E+01  0.4439E+00
     -2.785  0.1220E-01  0.1736E-01  0.7589E-01  0.4338E-01  0.1254E+01  0.4042E+00
     -2.720  0.1274E-01  0.1518E-01  0.7469E-01  0.4437E-01  0.1300E+01  0.3773E+00
     -2.654  0.1357E-01  0.1453E-01  0.7429E-01  0.5184E-01  0.1308E+01  0.3783E+00
     -2.588  0.1383E-01  0.1415E-01  0.7187E-01  0.6369E-01  0.1278E+01  0.4046E+00
     -2.522  0.1292E-01  0.1296E-01  0.6537E-01  0.7395E-01  0.1220E+01  0.4357E+00
     -2.456  0.1080E-01  0.1094E-01  0.5492E-01  0.7679E-01  0.1130E+01  0.4469E+00
     -2.390  0.8134E-02  0.8800E-02  0.4310E-01  0.7152E-01  0.1010E+01  0.4314E+00
     -2.324  0.5948E-02  0.7167E-02  0.3403E-01  0.6317E-01  0.8936E+00  0.4047E+00
     -2.258  0.5019E-02  0.6201E-02  0.3075E-01  0.5780E-01  0.8442E+00  0.3867E+00
     -2.193  0.5312E-02  0.5769E-02  0.3281E-01  0.5765E-01  0.8871E+00  0.3835E+00
     -2.127  0.6128E-02  0.5668E-02  0.3655E-01  0.6076E-01  0.9670E+00  0.3863E+00
     -2.061  0.6775E-02  0.5691E-02  0.3810E-01  0.6423E-01  0.9982E+00  0.3828E+00
     -1.995  0.7070E-02  0.5662E-02  0.3600E-01  0.6686E-01  0.9555E+00  0.3672E+00
     -1.929  0.7197E-02  0.5564E-02  0.3162E-01  0.6879E-01  0.8987E+00  0.3456E+00
     -1.863  0.7207E-02  0.5606E-02  0.2735E-01  0.7009E-01  0.9054E+00  0.3293E+00
     -1.797  0.6868E-02  0.6012E-02  0.2437E-01  0.7037E-01  0.9939E+00  0.3246E+00
     -1.731  0.6040E-02  0.6705E-02  0.2232E-01  0.6923E-01  0.1113E+01  0.3289E+00
     -1.665  0.4994E-02  0.7326E-02  0.2041E-01  0.6630E-01  0.1191E+01  0.3363E+00
     -1.600  0.4197E-02  0.7640E-02  0.1852E-01  0.6187E-01  0.1195E+01  0.3454E+00
     -1.534  0.3870E-02  0.7805E-02  0.1702E-01  0.5754E-01  0.1143E+01  0.3629E+00
     -1.468  0.3870E-02  0.8215E-02  0.1620E-01  0.5544E-01  0.1092E+01  0.3992E+00