       N       E                     dE             d eps       ncg     rms          rms(c)
DAV:   1     0.434041294446E+04    0.43404E+04   -0.23089E+05  8160   0.140E+03
DAV:   2    -0.588706432067E+02   -0.43993E+04   -0.40880E+04  8160   0.325E+02
DAV:   3    -0.428837324173E+03   -0.36997E+03   -0.31206E+03  8529   0.134E+02
DAV:   4    -0.443722937161E+03   -0.14886E+02   -0.14552E+02  8625   0.294E+01
DAV:   5    -0.443964055125E+03   -0.24112E+00   -0.24089E+00  9147   0.322E+00    0.484E+01
RMM:   6    -0.553941601852E+03   -0.10998E+03   -0.48477E+01  8189   0.161E+01    0.139E+02
RMM:   7    -0.636927411362E+03   -0.82986E+02   -0.65945E+01  8187   0.193E+01    0.180E+02
RMM:   8    -0.449059706585E+03    0.18787E+03   -0.33476E+01  8207   0.133E+01    0.584E+01
RMM:   9    -0.442515786011E+03    0.65439E+01   -0.28879E+01  8212   0.138E+01    0.549E+01
RMM:  10    -0.440056687829E+03    0.24591E+01   -0.14280E+01  8217   0.914E+00    0.664E+01
RMM:  11    -0.435843628359E+03    0.42131E+01   -0.18159E+01  8232   0.103E+01    0.299E+01
RMM:  12    -0.438742488019E+03   -0.28989E+01   -0.83494E+00  8216   0.698E+00    0.351E+01
RMM:  13    -0.435195545311E+03    0.35469E+01   -0.45299E+00  8228   0.556E+00    0.203E+01
RMM:  14    -0.437649962664E+03   -0.24544E+01   -0.38859E+00  8227   0.475E+00    0.253E+01
RMM:  15    -0.436769928946E+03    0.88003E+00   -0.27575E+00  8224   0.418E+00    0.155E+01
RMM:  16    -0.437313943293E+03   -0.54401E+00   -0.19190E+00  8230   0.335E+00    0.117E+01
RMM:  17    -0.440068009032E+03   -0.27541E+01   -0.12583E+00  8209   0.243E+00    0.123E+01
RMM:  18    -0.441268468542E+03   -0.12005E+01   -0.95606E-01  8208   0.222E+00    0.716E+00
RMM:  19    -0.443957649513E+03   -0.26892E+01   -0.11786E+00  8207   0.211E+00    0.105E+01
RMM:  20    -0.445587947612E+03   -0.16303E+01   -0.12264E+00  8193   0.203E+00    0.539E+00
RMM:  21    -0.447005636918E+03   -0.14177E+01   -0.73880E-01  8212   0.147E+00    0.657E+00
RMM:  22    -0.448389193394E+03   -0.13836E+01   -0.82896E-01  8197   0.146E+00    0.338E+00
RMM:  23    -0.448704396767E+03   -0.31520E+00   -0.14179E-01  8224   0.700E-01    0.316E+00
RMM:  24    -0.449173305160E+03   -0.46891E+00   -0.16134E-01  8196   0.605E-01    0.230E+00
RMM:  25    -0.449649007507E+03   -0.47570E+00   -0.12976E-01  8202   0.567E-01    0.271E+00
RMM:  26    -0.450870324152E+03   -0.12213E+01   -0.55570E-01  8183   0.946E-01    0.233E+00
RMM:  27    -0.451673827923E+03   -0.80350E+00   -0.31790E-01  8192   0.742E-01    0.287E+00
RMM:  28    -0.452362488609E+03   -0.68866E+00   -0.26303E-01  8183   0.599E-01    0.129E+00
RMM:  29    -0.452629121649E+03   -0.26663E+00   -0.68453E-02  8203   0.404E-01    0.170E+00
RMM:  30    -0.452855544294E+03   -0.22642E+00   -0.56941E-02  8179   0.331E-01    0.948E-01
RMM:  31    -0.452942482147E+03   -0.86938E-01   -0.22197E-02  8189   0.252E-01    0.108E+00
RMM:  32    -0.453003075482E+03   -0.60593E-01   -0.38784E-02  8174   0.252E-01    0.701E-01
RMM:  33    -0.453057455290E+03   -0.54380E-01   -0.97008E-03  8215   0.175E-01    0.799E-01
RMM:  34    -0.453198838727E+03   -0.14138E+00   -0.13872E-02  8187   0.165E-01    0.644E-01
RMM:  35    -0.453269979338E+03   -0.71141E-01   -0.52005E-03  8199   0.130E-01    0.694E-01
RMM:  36    -0.453426184661E+03   -0.15621E+00   -0.11401E-02  8182   0.129E-01    0.562E-01
RMM:  37    -0.453475979930E+03   -0.49795E-01   -0.16952E-03  8203   0.748E-02    0.442E-01
RMM:  38    -0.453599102467E+03   -0.12312E+00   -0.27012E-03  8185   0.738E-02    0.343E-01
RMM:  39    -0.453652171367E+03   -0.53069E-01   -0.99295E-04  8198   0.578E-02    0.309E-01
RMM:  40    -0.453737657149E+03   -0.85486E-01   -0.18940E-03  8184   0.546E-02    0.244E-01
RMM:  41    -0.453764470248E+03   -0.26813E-01   -0.99372E-04  8188   0.534E-02    0.285E-01
RMM:  42    -0.453796352564E+03   -0.31882E-01   -0.21006E-03  8184   0.536E-02    0.253E-01
RMM:  43    -0.453802771422E+03   -0.64189E-02   -0.33972E-04  8173   0.316E-02    0.244E-01
RMM:  44    -0.453811241213E+03   -0.84698E-02   -0.43178E-04  8154   0.273E-02    0.125E-01
RMM:  45    -0.453812172001E+03   -0.93079E-03   -0.11417E-04  7995   0.204E-02    0.162E-01
RMM:  46    -0.453812406953E+03   -0.23495E-03   -0.13142E-04  7713   0.177E-02    0.811E-02
RMM:  47    -0.453812368839E+03    0.38114E-04   -0.63012E-05  7501   0.168E-02    0.114E-01
RMM:  48    -0.453811163168E+03    0.12057E-02   -0.60835E-05  7247   0.141E-02    0.220E-01
RMM:  49    -0.453811178793E+03   -0.15625E-04   -0.15904E-05  5296   0.105E-02    0.203E-01
RMM:  50    -0.453811257257E+03   -0.78464E-04   -0.15884E-05  5225   0.902E-03    0.154E-01
RMM:  51    -0.453808480313E+03    0.27769E-02   -0.25960E-05  5864   0.104E-02    0.142E-01
RMM:  52    -0.453809846370E+03   -0.13661E-02   -0.11142E-05  4849   0.801E-03    0.147E-01
RMM:  53    -0.453810115005E+03   -0.26863E-03   -0.47564E-06  4566   0.577E-03    0.136E-01
RMM:  54    -0.453810751694E+03   -0.63669E-03   -0.66400E-06  4831   0.467E-03    0.104E-01
RMM:  55    -0.453811267593E+03   -0.51590E-03   -0.74076E-06  4792   0.643E-03    0.100E-01
RMM:  56    -0.453811337387E+03   -0.69794E-04   -0.11657E-05  4711   0.824E-03    0.641E-02
RMM:  57    -0.453812072150E+03   -0.73476E-03   -0.10503E-05  5214   0.635E-03    0.444E-02
RMM:  58    -0.453812334310E+03   -0.26216E-03   -0.63790E-06  4674   0.582E-03    0.358E-02
RMM:  59    -0.453812511025E+03   -0.17671E-03   -0.58773E-06  4675   0.468E-03    0.142E-02
RMM:  60    -0.453812572092E+03   -0.61067E-04   -0.35268E-06  4633   0.365E-03    0.120E-02
RMM:  61    -0.453812646797E+03   -0.74706E-04   -0.34316E-06  4639   0.343E-03    0.104E-02
RMM:  62    -0.453812656930E+03   -0.10133E-04   -0.11438E-06  4443   0.250E-03    0.415E-03
RMM:  63    -0.453812678031E+03   -0.21101E-04   -0.70380E-07  3785   0.143E-03    0.473E-03
RMM:  64    -0.453812707526E+03   -0.29495E-04   -0.51588E-07  3594   0.135E-03    0.447E-03
RMM:  65    -0.453812721586E+03   -0.14059E-04   -0.22612E-07  2671   0.104E-03    0.220E-03
RMM:  66    -0.453812712212E+03    0.93733E-05   -0.84103E-08  2420   0.983E-04
   1 F= -.45381271E+03 E0= -.45382447E+03  d E =-.453813E+03  mag=   135.8898
       N       E                     dE             d eps       ncg     rms          rms(c)
DAV:   1    -0.451994215706E+03    0.18185E+01   -0.58823E+02  8166   0.355E+01    0.185E+01
RMM:   2    -0.499432195128E+03   -0.47438E+02   -0.45933E+01  8196   0.182E+01    0.923E+01
RMM:   3    -0.478890236619E+03    0.20542E+02   -0.14324E+01  8203   0.920E+00    0.642E+01
RMM:   4    -0.458129352829E+03    0.20761E+02   -0.80778E+00  8220   0.682E+00    0.241E+01
RMM:   5    -0.456539660036E+03    0.15897E+01   -0.35554E+00  8214   0.489E+00    0.184E+01
RMM:   6    -0.455640390202E+03    0.89927E+00   -0.16902E+00  8208   0.343E+00    0.117E+01
RMM:   7    -0.455318441805E+03    0.32195E+00   -0.44831E-01  8208   0.182E+00    0.619E+00
RMM:   8    -0.455352580425E+03   -0.34139E-01   -0.22696E-01  8207   0.120E+00    0.545E+00
RMM:   9    -0.455452382506E+03   -0.99802E-01   -0.19058E-01  8225   0.104E+00    0.499E+00
RMM:  10    -0.455441206502E+03    0.11176E-01   -0.14663E-01  8209   0.952E-01    0.317E+00
RMM:  11    -0.455515639286E+03   -0.74433E-01   -0.64375E-02  8221   0.585E-01    0.295E+00
RMM:  12    -0.455518051208E+03   -0.24119E-02   -0.32331E-02  8210   0.450E-01    0.170E+00
RMM:  13    -0.455551788718E+03   -0.33738E-01   -0.24299E-02  8222   0.362E-01    0.199E+00
RMM:  14    -0.455543096598E+03    0.86921E-02   -0.15644E-02  8208   0.309E-01    0.109E+00
RMM:  15    -0.455552259284E+03   -0.91627E-02   -0.76657E-03  8216   0.201E-01    0.124E+00
RMM:  16    -0.455552061000E+03    0.19828E-03   -0.48771E-03  8206   0.176E-01    0.791E-01
RMM:  17    -0.455560953499E+03   -0.88925E-02   -0.46462E-03  8209   0.153E-01    0.932E-01
RMM:  18    -0.455567882311E+03   -0.69288E-02   -0.34042E-03  8208   0.144E-01    0.504E-01
RMM:  19    -0.455595074217E+03   -0.27192E-01   -0.20496E-03  8209   0.962E-02    0.620E-01
RMM:  20    -0.455612341997E+03   -0.17268E-01   -0.13225E-03  8201   0.858E-02    0.405E-01
RMM:  21    -0.455646974045E+03   -0.34632E-01   -0.16377E-03  8203   0.725E-02    0.456E-01
RMM:  22    -0.455667937935E+03   -0.20964E-01   -0.12179E-03  8200   0.707E-02    0.279E-01
RMM:  23    -0.455699603547E+03   -0.31666E-01   -0.22547E-03  8201   0.811E-02    0.433E-01
RMM:  24    -0.455713847215E+03   -0.14244E-01   -0.16416E-03  8202   0.759E-02    0.179E-01
RMM:  25    -0.455721856588E+03   -0.80094E-02   -0.10823E-03  8187   0.583E-02    0.282E-01
RMM:  26    -0.455725262972E+03   -0.34064E-02   -0.69249E-04  8174   0.495E-02    0.120E-01
RMM:  27    -0.455725666512E+03   -0.40354E-03   -0.17433E-04  8162   0.261E-02    0.121E-01
RMM:  28    -0.455725466768E+03    0.19974E-03   -0.79960E-05  7587   0.186E-02    0.498E-02
RMM:  29    -0.455725449539E+03    0.17229E-04   -0.44787E-05  6746   0.144E-02    0.664E-02
RMM:  30    -0.455725455732E+03   -0.61926E-05   -0.22566E-05  5196   0.122E-02
   2 F= -.45572546E+03 E0= -.45573903E+03  d E =-.191274E+01  mag=   137.5279
       N       E                     dE             d eps       ncg     rms          rms(c)
DAV:   1    -0.455260606890E+03    0.46484E+00   -0.10486E+02  8202   0.146E+01    0.729E+00
RMM:   2    -0.459372065679E+03   -0.41115E+01   -0.40030E+00  8205   0.556E+00    0.247E+01
RMM:   3    -0.459945562924E+03   -0.57350E+00   -0.17855E+00  8206   0.316E+00    0.251E+01
RMM:   4    -0.456791373304E+03    0.31542E+01   -0.13592E+00  8216   0.276E+00    0.134E+01
RMM:   5    -0.455945580856E+03    0.84579E+00   -0.52208E-01  8215   0.197E+00    0.367E+00
RMM:   6    -0.455913107353E+03    0.32474E-01   -0.10162E-01  8209   0.794E-01    0.246E+00
RMM:   7    -0.455894312524E+03    0.18795E-01   -0.23385E-02  8205   0.406E-01    0.140E+00
RMM:   8    -0.455889999592E+03    0.43129E-02   -0.14650E-02  8193   0.311E-01    0.103E+00
RMM:   9    -0.455894425343E+03   -0.44258E-02   -0.12010E-02  8221   0.248E-01    0.132E+00
RMM:  10    -0.455888344600E+03    0.60807E-02   -0.95415E-03  8211   0.245E-01    0.609E-01
RMM:  11    -0.455891779106E+03   -0.34345E-02   -0.38523E-03  8206   0.148E-01    0.699E-01
RMM:  12    -0.455891150330E+03    0.62878E-03   -0.24299E-03  8205   0.129E-01    0.201E-01
RMM:  13    -0.455894211303E+03   -0.30610E-02   -0.93394E-04  8198   0.717E-02    0.348E-01
RMM:  14    -0.455895813185E+03   -0.16019E-02   -0.50373E-04  8179   0.582E-02    0.100E-01
RMM:  15    -0.455898106697E+03   -0.22935E-02   -0.19656E-04  8161   0.321E-02    0.150E-01
RMM:  16    -0.455900518486E+03   -0.24118E-02   -0.10641E-04  8021   0.240E-02    0.696E-02
RMM:  17    -0.455902072289E+03   -0.15538E-02   -0.51440E-05  7066   0.158E-02    0.899E-02
RMM:  18    -0.455905156718E+03   -0.30844E-02   -0.67961E-05  6890   0.143E-02    0.734E-02
RMM:  19    -0.455906410633E+03   -0.12539E-02   -0.30836E-05  5732   0.111E-02    0.734E-02
RMM:  20    -0.455909064005E+03   -0.26534E-02   -0.68624E-05  6815   0.117E-02    0.422E-02
RMM:  21    -0.455910132941E+03   -0.10689E-02   -0.27949E-05  5572   0.944E-03    0.425E-02
RMM:  22    -0.455912795159E+03   -0.26622E-02   -0.11866E-04  7127   0.122E-02    0.291E-02
RMM:  23    -0.455913572743E+03   -0.77758E-03   -0.29268E-05  5688   0.856E-03    0.267E-02
RMM:  24    -0.455914837534E+03   -0.12648E-02   -0.80407E-05  6622   0.922E-03    0.207E-02
RMM:  25    -0.455914985321E+03   -0.14779E-03   -0.12519E-05  4780   0.574E-03    0.145E-02
RMM:  26    -0.455914989889E+03   -0.45685E-05   -0.25132E-05  5617   0.497E-03
   3 F= -.45591499E+03 E0= -.45592954E+03  d E =-.210228E+01  mag=   137.8001
       N       E                     dE             d eps       ncg     rms          rms(c)
DAV:   1    -0.455677746694E+03    0.23724E+00   -0.10820E+02  8178   0.149E+01    0.709E+00
RMM:   2    -0.457859695045E+03   -0.21819E+01   -0.29476E+00  8211   0.461E+00    0.177E+01
RMM:   3    -0.458605751412E+03   -0.74606E+00   -0.20364E+00  8204   0.356E+00    0.194E+01
RMM:   4    -0.458683374170E+03   -0.77623E-01   -0.89896E-01  8219   0.214E+00    0.196E+01
RMM:   5    -0.456324692624E+03    0.23587E+01   -0.47133E-01  8205   0.177E+00    0.339E+00
RMM:   6    -0.456287604264E+03    0.37088E-01   -0.91504E-02  8208   0.731E-01    0.218E+00
RMM:   7    -0.456267069648E+03    0.20535E-01   -0.16340E-02  8212   0.344E-01    0.107E+00
RMM:   8    -0.456266254271E+03    0.81538E-03   -0.12212E-02  8184   0.279E-01    0.117E+00
RMM:   9    -0.456257243681E+03    0.90106E-02   -0.12076E-02  8223   0.258E-01    0.100E+00
RMM:  10    -0.456252911538E+03    0.43321E-02   -0.90457E-03  8204   0.234E-01    0.619E-01
RMM:  11    -0.456256337838E+03   -0.34263E-02   -0.30751E-03  8205   0.136E-01    0.584E-01
RMM:  12    -0.456257064823E+03   -0.72699E-03   -0.18968E-03  8180   0.111E-01    0.307E-01
RMM:  13    -0.456261983852E+03   -0.49190E-02   -0.94288E-04  8212   0.704E-02    0.367E-01
RMM:  14    -0.456264158723E+03   -0.21749E-02   -0.54219E-04  8160   0.594E-02    0.122E-01
RMM:  15    -0.456268858922E+03   -0.47002E-02   -0.22599E-04  8160   0.324E-02    0.184E-01
RMM:  16    -0.456272954306E+03   -0.40954E-02   -0.14880E-04  8106   0.273E-02    0.961E-02
RMM:  17    -0.456278266833E+03   -0.53125E-02   -0.15062E-04  8141   0.228E-02    0.127E-01
RMM:  18    -0.456285061558E+03   -0.67947E-02   -0.20195E-04  8027   0.216E-02    0.600E-02
RMM:  19    -0.456291147233E+03   -0.60857E-02   -0.22299E-04  8086   0.208E-02    0.998E-02
RMM:  20    -0.456296747921E+03   -0.56007E-02   -0.27714E-04  7981   0.208E-02    0.596E-02
RMM:  21    -0.456299867942E+03   -0.31200E-02   -0.16863E-04  7640   0.173E-02    0.814E-02
RMM:  22    -0.456302596262E+03   -0.27283E-02   -0.18465E-04  7497   0.161E-02    0.257E-02
RMM:  23    -0.456303288425E+03   -0.69216E-03   -0.38188E-05  6240   0.973E-03    0.353E-02
RMM:  24    -0.456304016114E+03   -0.72769E-03   -0.44950E-05  6341   0.920E-03    0.256E-02
RMM:  25    -0.456304152518E+03   -0.13640E-03   -0.10236E-05  4924   0.571E-03    0.243E-02
RMM:  26    -0.456304245176E+03   -0.92658E-04   -0.13766E-05  5301   0.520E-03    0.818E-03
RMM:  27    -0.456304242976E+03    0.21991E-05   -0.26555E-06  4633   0.328E-03
   4 F= -.45630424E+03 E0= -.45631786E+03  d E =-.389253E+00  mag=   138.2301
       N       E                     dE             d eps       ncg     rms          rms(c)
DAV:   1    -0.453017382190E+03    0.32869E+01   -0.57755E+02  8160   0.355E+01    0.164E+01
RMM:   2    -0.462927546021E+03   -0.99102E+01   -0.19389E+01  8212   0.116E+01    0.371E+01
RMM:   3    -0.461075232993E+03    0.18523E+01   -0.10983E+01  8208   0.829E+00    0.307E+01
RMM:   4    -0.467015169046E+03   -0.59399E+01   -0.33971E+00  8214   0.452E+00    0.403E+01
RMM:   5    -0.457348769340E+03    0.96664E+01   -0.14278E+00  8208   0.288E+00    0.125E+01
RMM:   6    -0.456611110281E+03    0.73766E+00   -0.62841E-01  8214   0.193E+00    0.712E+00
RMM:   7    -0.456428936924E+03    0.18217E+00   -0.15019E-01  8214   0.108E+00    0.286E+00
RMM:   8    -0.456451053552E+03   -0.22117E-01   -0.75960E-02  8201   0.687E-01    0.314E+00
RMM:   9    -0.456436878277E+03    0.14175E-01   -0.65772E-02  8216   0.597E-01    0.226E+00
RMM:  10    -0.456430284046E+03    0.65942E-02   -0.65097E-02  8205   0.609E-01    0.250E+00
RMM:  11    -0.456396685675E+03    0.33598E-01   -0.31393E-02  8214   0.442E-01    0.132E+00
RMM:  12    -0.456393715944E+03    0.29697E-02   -0.17559E-02  8209   0.321E-01    0.137E+00
RMM:  13    -0.456390893543E+03    0.28224E-02   -0.98770E-03  8218   0.238E-01    0.973E-01
RMM:  14    -0.456394529938E+03   -0.36364E-02   -0.65932E-03  8198   0.202E-01    0.526E-01
RMM:  15    -0.456417081752E+03   -0.22552E-01   -0.24871E-03  8204   0.113E-01    0.508E-01
RMM:  16    -0.456426705222E+03   -0.96235E-02   -0.14545E-03  8183   0.950E-02    0.236E-01
RMM:  17    -0.456458362194E+03   -0.31657E-01   -0.12508E-03  8195   0.624E-02    0.343E-01
RMM:  18    -0.456475364966E+03   -0.17003E-01   -0.67602E-04  8185   0.545E-02    0.176E-01
RMM:  19    -0.456517287374E+03   -0.41922E-01   -0.12947E-03  8181   0.452E-02    0.243E-01
RMM:  20    -0.456544206533E+03   -0.26919E-01   -0.79311E-04  8166   0.399E-02    0.168E-01
RMM:  21    -0.456588989060E+03   -0.44783E-01   -0.20616E-03  8173   0.488E-02    0.238E-01
RMM:  22    -0.456614343248E+03   -0.25354E-01   -0.14655E-03  8167   0.427E-02    0.912E-02
RMM:  23    -0.456624302371E+03   -0.99591E-02   -0.59904E-04  8177   0.329E-02    0.138E-01
RMM:  24    -0.456631340438E+03   -0.70381E-02   -0.51068E-04  8159   0.283E-02    0.483E-02
RMM:  25    -0.456634140174E+03   -0.27997E-02   -0.18811E-04  7984   0.197E-02    0.880E-02
RMM:  26    -0.456636102178E+03   -0.19620E-02   -0.12019E-04  7364   0.152E-02    0.492E-02
RMM:  27    -0.456636851641E+03   -0.74946E-03   -0.40794E-05  6319   0.103E-02    0.563E-02
RMM:  28    -0.456637575039E+03   -0.72340E-03   -0.46876E-05  6379   0.979E-03    0.264E-02
RMM:  29    -0.456637768825E+03   -0.19379E-03   -0.12311E-05  4989   0.612E-03    0.281E-02
RMM:  30    -0.456637947016E+03   -0.17819E-03   -0.98222E-06  4990   0.589E-03    0.158E-02
RMM:  31    -0.456638023473E+03   -0.76456E-04   -0.38090E-06  4659   0.359E-03    0.162E-02
RMM:  32    -0.456638119480E+03   -0.96007E-04   -0.35552E-06  4757   0.343E-03    0.965E-03
RMM:  33    -0.456638180519E+03   -0.61039E-04   -0.22427E-06  4597   0.252E-03    0.972E-03
RMM:  34    -0.456638232293E+03   -0.51774E-04   -0.17325E-06  4541   0.239E-03    0.438E-03
RMM:  35    -0.456638298298E+03   -0.66006E-04   -0.24598E-06  4686   0.196E-03    0.640E-03
RMM:  36    -0.456638331327E+03   -0.33029E-04   -0.12134E-06  4351   0.201E-03    0.297E-03
RMM:  37    -0.456638372510E+03   -0.41182E-04   -0.17618E-06  3849   0.150E-03    0.580E-03
RMM:  38    -0.456638386652E+03   -0.14142E-04   -0.66116E-07  3609   0.142E-03    0.648E-03
RMM:  39    -0.456638399351E+03   -0.12699E-04   -0.61438E-07  2936   0.117E-03    0.595E-03
RMM:  40    -0.456638401769E+03   -0.24182E-05   -0.14071E-07  2304   0.101E-03
   5 F= -.45663840E+03 E0= -.45665317E+03  d E =-.723412E+00  mag=   138.8723
       N       E                     dE             d eps       ncg     rms          rms(c)
DAV:   1    -0.456031542448E+03    0.60686E+00   -0.15672E+02  8178   0.180E+01    0.834E+00
RMM:   2    -0.459146837400E+03   -0.31153E+01   -0.37333E+00  8212   0.506E+00    0.210E+01
RMM:   3    -0.462272132868E+03   -0.31253E+01   -0.26413E+00  8208   0.388E+00    0.288E+01
RMM:   4    -0.459219499800E+03    0.30526E+01   -0.14802E+00  8212   0.279E+00    0.196E+01
RMM:   5    -0.456939972494E+03    0.22795E+01   -0.68435E-01  8206   0.218E+00    0.381E+00
RMM:   6    -0.456907000523E+03    0.32972E-01   -0.14640E-01  8215   0.906E-01    0.286E+00
RMM:   7    -0.456873694484E+03    0.33306E-01   -0.31231E-02  8208   0.447E-01    0.137E+00
RMM:   8    -0.456870350828E+03    0.33437E-02   -0.15787E-02  8204   0.311E-01    0.139E+00
RMM:   9    -0.456848226497E+03    0.22124E-01   -0.13307E-02  8213   0.274E-01    0.108E+00
RMM:  10    -0.456840995255E+03    0.72312E-02   -0.12122E-02  8210   0.267E-01    0.922E-01
RMM:  11    -0.456838560112E+03    0.24351E-02   -0.44104E-03  8210   0.164E-01    0.567E-01
RMM:  12    -0.456839887419E+03   -0.13273E-02   -0.25592E-03  8184   0.125E-01    0.350E-01
RMM:  13    -0.456849259793E+03   -0.93724E-02   -0.12342E-03  8194   0.783E-02    0.347E-01
RMM:  14    -0.456853999356E+03   -0.47396E-02   -0.64323E-04  8174   0.630E-02    0.125E-01
RMM:  15    -0.456866408007E+03   -0.12409E-01   -0.34290E-04  8163   0.346E-02    0.189E-01
RMM:  16    -0.456873335922E+03   -0.69279E-02   -0.17290E-04  8129   0.281E-02    0.119E-01
RMM:  17    -0.456885315803E+03   -0.11980E-01   -0.24670E-04  8152   0.250E-02    0.157E-01
RMM:  18    -0.456895959047E+03   -0.10643E-01   -0.22467E-04  8074   0.231E-02    0.911E-02
RMM:  19    -0.456906082008E+03   -0.10123E-01   -0.22328E-04  8066   0.205E-02    0.112E-01
RMM:  20    -0.456915566462E+03   -0.94845E-02   -0.25212E-04  7871   0.196E-02    0.659E-02
RMM:  21    -0.456921135131E+03   -0.55687E-02   -0.15803E-04  7682   0.174E-02    0.841E-02
RMM:  22    -0.456929026444E+03   -0.78913E-02   -0.44949E-04  8043   0.211E-02    0.408E-02
RMM:  23    -0.456930755264E+03   -0.17288E-02   -0.84856E-05  7044   0.128E-02    0.454E-02
RMM:  24    -0.456932864674E+03   -0.21094E-02   -0.11125E-04  7088   0.117E-02    0.418E-02
RMM:  25    -0.456933337190E+03   -0.47252E-03   -0.22723E-05  5505   0.750E-03    0.378E-02
RMM:  26    -0.456933665140E+03   -0.32795E-03   -0.21942E-05  5453   0.654E-03    0.150E-02
RMM:  27    -0.456933707771E+03   -0.42630E-04   -0.99162E-06  4846   0.467E-03    0.164E-02
RMM:  28    -0.456933657948E+03    0.49822E-04   -0.77739E-06  5282   0.468E-03    0.857E-03
RMM:  29    -0.456933659151E+03   -0.12030E-05   -0.24729E-06  4604   0.284E-03
   6 F= -.45693366E+03 E0= -.45694907E+03  d E =-.295257E+00  mag=   139.1108
       N       E                     dE             d eps       ncg     rms          rms(c)
DAV:   1    -0.454094210407E+03    0.28394E+01   -0.49456E+02  8160   0.327E+01    0.147E+01
RMM:   2    -0.461750538231E+03   -0.76563E+01   -0.12941E+01  8215   0.930E+00    0.318E+01
RMM:   3    -0.469796320857E+03   -0.80458E+01   -0.93397E+00  8206   0.742E+00    0.468E+01
RMM:   4    -0.465789148236E+03    0.40072E+01   -0.38581E+00  8217   0.451E+00    0.385E+01
RMM:   5    -0.457249545707E+03    0.85396E+01   -0.21937E+00  8209   0.379E+00    0.851E+00
RMM:   6    -0.457027531957E+03    0.22201E+00   -0.59636E-01  8212   0.181E+00    0.632E+00
RMM:   7    -0.456904758809E+03    0.12277E+00   -0.13162E-01  8207   0.944E-01    0.253E+00
RMM:   8    -0.456910897138E+03   -0.61383E-02   -0.59899E-02  8212   0.597E-01    0.292E+00
RMM:   9    -0.456852603476E+03    0.58294E-01   -0.52087E-02  8213   0.551E-01    0.173E+00
RMM:  10    -0.456846584472E+03    0.60190E-02   -0.50733E-02  8211   0.532E-01    0.215E+00
RMM:  11    -0.456831842812E+03    0.14742E-01   -0.22977E-02  8205   0.380E-01    0.112E+00
RMM:  12    -0.456834412247E+03   -0.25694E-02   -0.11367E-02  8209   0.254E-01    0.109E+00
RMM:  13    -0.456847100824E+03   -0.12689E-01   -0.58056E-03  8201   0.179E-01    0.630E-01
RMM:  14    -0.456857214796E+03   -0.10114E-01   -0.32730E-03  8210   0.140E-01    0.420E-01
RMM:  15    -0.456883732173E+03   -0.26517E-01   -0.12711E-03  8199   0.797E-02    0.309E-01
RMM:  16    -0.456895487002E+03   -0.11755E-01   -0.72538E-04  8178   0.641E-02    0.265E-01
RMM:  17    -0.456929828579E+03   -0.34342E-01   -0.93485E-04  8167   0.489E-02    0.260E-01
RMM:  18    -0.456943076205E+03   -0.13248E-01   -0.34736E-04  8173   0.377E-02    0.158E-01
RMM:  19    -0.456988449333E+03   -0.45373E-01   -0.13088E-03  8167   0.411E-02    0.199E-01
RMM:  20    -0.457010385153E+03   -0.21936E-01   -0.53828E-04  8164   0.324E-02    0.124E-01
RMM:  21    -0.457048957984E+03   -0.38573E-01   -0.13014E-03  8167   0.379E-02    0.190E-01
RMM:  22    -0.457074495830E+03   -0.25538E-01   -0.10624E-03  8164   0.349E-02    0.729E-02
RMM:  23    -0.457088574632E+03   -0.14079E-01   -0.72286E-04  8167   0.304E-02    0.127E-01
RMM:  24    -0.457095045887E+03   -0.64713E-02   -0.42242E-04  8138   0.240E-02    0.990E-02
RMM:  25    -0.457098038470E+03   -0.29926E-02   -0.20547E-04  7682   0.172E-02    0.961E-02
RMM:  26    -0.457099141640E+03   -0.11032E-02   -0.77225E-05  6909   0.124E-02    0.453E-02
RMM:  27    -0.457099576929E+03   -0.43529E-03   -0.48479E-05  6268   0.928E-03    0.420E-02
RMM:  28    -0.457099616715E+03   -0.39786E-04   -0.24940E-05  5631   0.905E-03    0.131E-02
RMM:  29    -0.457099629269E+03   -0.12554E-04   -0.71990E-06  4855   0.518E-03    0.182E-02
RMM:  30    -0.457099667008E+03   -0.37739E-04   -0.44187E-06  4713   0.464E-03    0.155E-02
RMM:  31    -0.457099777094E+03   -0.11009E-03   -0.40873E-06  4848   0.321E-03    0.161E-02
RMM:  32    -0.457099908623E+03   -0.13153E-03   -0.42514E-06  5012   0.353E-03    0.667E-03
RMM:  33    -0.457100058449E+03   -0.14983E-03   -0.37573E-06  4954   0.251E-03    0.812E-03
RMM:  34    -0.457100139557E+03   -0.81108E-04   -0.15706E-06  4486   0.241E-03    0.462E-03
RMM:  35    -0.457100289763E+03   -0.15021E-03   -0.27596E-06  4511   0.184E-03    0.548E-03
RMM:  36    -0.457100354195E+03   -0.64432E-04   -0.99863E-07  4027   0.168E-03    0.457E-03
RMM:  37    -0.457100461494E+03   -0.10730E-03   -0.16749E-06  3455   0.143E-03    0.650E-03
RMM:  38    -0.457100499969E+03   -0.38475E-04   -0.53462E-07  2972   0.122E-03    0.628E-03
RMM:  39    -0.457100586009E+03   -0.86041E-04   -0.14858E-06  3239   0.130E-03    0.432E-03
RMM:  40    -0.457100613706E+03   -0.27696E-04   -0.46926E-07  2622   0.113E-03    0.342E-03
RMM:  41    -0.457100662740E+03   -0.49035E-04   -0.11910E-06  3864   0.137E-03    0.243E-02
RMM:  42    -0.457100667957E+03   -0.52169E-05   -0.27637E-07  2713   0.111E-03
   7 F= -.45710067E+03 E0= -.45711847E+03  d E =-.462266E+00  mag=   139.3662
       N       E                     dE             d eps       ncg     rms          rms(c)
DAV:   1    -0.457071476640E+03    0.29186E-01   -0.57864E+00  8304   0.341E+00    0.158E+00
RMM:   2    -0.457250855982E+03   -0.17938E+00   -0.12386E-01  8209   0.902E-01    0.502E+00
RMM:   3    -0.457278286904E+03   -0.27431E-01   -0.72670E-02  8210   0.619E-01    0.523E+00
RMM:   4    -0.457167813077E+03    0.11047E+00   -0.62831E-02  8206   0.591E-01    0.346E+00
RMM:   5    -0.457103389173E+03    0.64424E-01   -0.23871E-02  8204   0.423E-01    0.685E-01
RMM:   6    -0.457101511264E+03    0.18779E-02   -0.29754E-03  8217   0.133E-01    0.330E-01
RMM:   7    -0.457100333066E+03    0.11782E-02   -0.65896E-04  8179   0.610E-02    0.293E-01
RMM:   8    -0.457099619343E+03    0.71372E-03   -0.53601E-04  8201   0.585E-02    0.154E-01
RMM:   9    -0.457099066285E+03    0.55306E-03   -0.41556E-04  8179   0.460E-02    0.229E-01
RMM:  10    -0.457098684209E+03    0.38208E-03   -0.30432E-04  8168   0.433E-02    0.897E-02
RMM:  11    -0.457098874985E+03   -0.19078E-03   -0.99314E-05  8065   0.227E-02    0.115E-01
RMM:  12    -0.457098936721E+03   -0.61737E-04   -0.45094E-05  7232   0.175E-02    0.337E-02
RMM:  13    -0.457099232085E+03   -0.29536E-03   -0.14079E-05  5144   0.890E-03    0.460E-02
RMM:  14    -0.457099470196E+03   -0.23811E-03   -0.10019E-05  4782   0.904E-03    0.195E-02
RMM:  15    -0.457099829710E+03   -0.35951E-03   -0.82471E-06  5204   0.614E-03    0.377E-02
RMM:  16    -0.457100561489E+03   -0.73178E-03   -0.16417E-05  5668   0.689E-03    0.505E-02
RMM:  17    -0.457100961443E+03   -0.39995E-03   -0.74838E-06  5257   0.493E-03    0.361E-02
RMM:  18    -0.457101308599E+03   -0.34716E-03   -0.55859E-06  4946   0.475E-03    0.144E-02
RMM:  19    -0.457101802384E+03   -0.49378E-03   -0.74750E-06  5394   0.411E-03    0.174E-02
RMM:  20    -0.457102153871E+03   -0.35149E-03   -0.51126E-06  4988   0.442E-03    0.104E-02
RMM:  21    -0.457102746838E+03   -0.59297E-03   -0.11603E-05  5595   0.406E-03    0.145E-02
RMM:  22    -0.457103039062E+03   -0.29222E-03   -0.60078E-06  5285   0.403E-03    0.631E-03
RMM:  23    -0.457103322041E+03   -0.28298E-03   -0.85441E-06  5502   0.312E-03    0.101E-02
RMM:  24    -0.457103412317E+03   -0.90276E-04   -0.36125E-06  4975   0.295E-03    0.412E-03
RMM:  25    -0.457103445001E+03   -0.32684E-04   -0.28050E-06  4497   0.185E-03    0.400E-03
RMM:  26    -0.457103440985E+03    0.40164E-05   -0.85490E-07  3850   0.161E-03
   8 F= -.45710344E+03 E0= -.45712095E+03  d E =-.465039E+00  mag=   139.3443
       N       E                     dE             d eps       ncg     rms          rms(c)
DAV:   1    -0.456918606756E+03    0.18484E+00   -0.56220E+01  8160   0.107E+01    0.458E+00
RMM:   2    -0.457451661061E+03   -0.53305E+00   -0.11047E+00  8216   0.289E+00    0.793E+00
RMM:   3    -0.457606120043E+03   -0.15446E+00   -0.82415E-01  8217   0.228E+00    0.915E+00
RMM:   4    -0.457569369218E+03    0.36751E-01   -0.25192E-01  8211   0.133E+00    0.770E+00
RMM:   5    -0.457238615445E+03    0.33075E+00   -0.55134E-02  8215   0.559E-01    0.279E+00
RMM:   6    -0.457198546398E+03    0.40069E-01   -0.29339E-02  8218   0.417E-01    0.972E-01
RMM:   7    -0.457195198731E+03    0.33477E-02   -0.68474E-03  8222   0.212E-01    0.919E-01
RMM:   8    -0.457191268549E+03    0.39302E-02   -0.54424E-03  8183   0.191E-01    0.616E-01
RMM:   9    -0.457190051556E+03    0.12170E-02   -0.53912E-03  8222   0.167E-01    0.838E-01
RMM:  10    -0.457186100804E+03    0.39508E-02   -0.40702E-03  8209   0.159E-01    0.220E-01
RMM:  11    -0.457188753128E+03   -0.26523E-02   -0.10961E-03  8189   0.768E-02    0.369E-01
RMM:  12    -0.457189311930E+03   -0.55880E-03   -0.47905E-04  8175   0.574E-02    0.915E-02
RMM:  13    -0.457190422553E+03   -0.11106E-02   -0.13613E-04  8160   0.267E-02    0.116E-01
RMM:  14    -0.457192401317E+03   -0.19788E-02   -0.66318E-05  7675   0.187E-02    0.607E-02
RMM:  15    -0.457193243338E+03   -0.84202E-03   -0.30520E-05  5771   0.132E-02    0.674E-02
RMM:  16    -0.457195725916E+03   -0.24826E-02   -0.50648E-05  6508   0.125E-02    0.611E-02
RMM:  17    -0.457196630211E+03   -0.90430E-03   -0.22119E-05  4961   0.106E-02    0.530E-02
RMM:  18    -0.457198513069E+03   -0.18829E-02   -0.38688E-05  5959   0.906E-03    0.339E-02
RMM:  19    -0.457199269550E+03   -0.75648E-03   -0.15051E-05  4802   0.768E-03    0.327E-02
RMM:  20    -0.457201486855E+03   -0.22173E-02   -0.69856E-05  6708   0.934E-03    0.271E-02
RMM:  21    -0.457202162072E+03   -0.67522E-03   -0.16250E-05  4999   0.671E-03    0.228E-02
RMM:  22    -0.457203736264E+03   -0.15742E-02   -0.62939E-05  6412   0.798E-03    0.328E-02
RMM:  23    -0.457204071722E+03   -0.33546E-03   -0.11717E-05  4791   0.548E-03    0.275E-02
RMM:  24    -0.457204375575E+03   -0.30385E-03   -0.15179E-05  4966   0.435E-03    0.153E-02
RMM:  25    -0.457204413806E+03   -0.38231E-04   -0.39452E-06  4652   0.352E-03    0.908E-03
RMM:  26    -0.457204396496E+03    0.17311E-04   -0.60499E-06  4945   0.257E-03    0.520E-03
RMM:  27    -0.457204385649E+03    0.10847E-04   -0.10209E-06  4349   0.213E-03    0.386E-03
RMM:  28    -0.457204383001E+03    0.26476E-05   -0.52305E-07  3475   0.126E-03
   9 F= -.45720438E+03 E0= -.45722178E+03  d E =-.100942E+00  mag=   139.4014
       N       E                     dE             d eps       ncg     rms          rms(c)
DAV:   1    -0.457065182807E+03    0.13920E+00   -0.31624E+01  8190   0.802E+00    0.341E+00
RMM:   2    -0.457353912323E+03   -0.28873E+00   -0.57050E-01  8216   0.207E+00    0.576E+00
RMM:   3    -0.457536091774E+03   -0.18218E+00   -0.45604E-01  8218   0.169E+00    0.773E+00
RMM:   4    -0.457857695545E+03   -0.32160E+00   -0.16947E-01  8219   0.988E-01    0.982E+00
RMM:   5    -0.457231763487E+03    0.62593E+00   -0.75410E-02  8199   0.668E-01    0.166E+00
RMM:   6    -0.457221700596E+03    0.10063E-01   -0.19209E-02  8212   0.335E-01    0.744E-01
RMM:   7    -0.457219516163E+03    0.21844E-02   -0.39765E-03  8222   0.161E-01    0.695E-01
RMM:   8    -0.457217192634E+03    0.23235E-02   -0.30797E-03  8178   0.143E-01    0.445E-01
RMM:   9    -0.457216426568E+03    0.76607E-03   -0.27032E-03  8224   0.119E-01    0.597E-01
RMM:  10    -0.457214377445E+03    0.20491E-02   -0.21107E-03  8206   0.115E-01    0.173E-01
RMM:  11    -0.457215689860E+03   -0.13124E-02   -0.60942E-04  8178   0.573E-02    0.277E-01
RMM:  12    -0.457215887925E+03   -0.19807E-03   -0.26753E-04  8161   0.428E-02    0.703E-02
RMM:  13    -0.457216481182E+03   -0.59326E-03   -0.74805E-05  7998   0.197E-02    0.868E-02
RMM:  14    -0.457217559499E+03   -0.10783E-02   -0.35245E-05  6100   0.139E-02    0.437E-02
RMM:  15    -0.457218061856E+03   -0.50236E-03   -0.18618E-05  4810   0.108E-02    0.503E-02
RMM:  16    -0.457219516236E+03   -0.14544E-02   -0.31261E-05  5674   0.993E-03    0.459E-02
RMM:  17    -0.457220037724E+03   -0.52149E-03   -0.13471E-05  4720   0.856E-03    0.402E-02
RMM:  18    -0.457221078344E+03   -0.10406E-02   -0.19269E-05  5099   0.683E-03    0.233E-02
RMM:  19    -0.457221591924E+03   -0.51358E-03   -0.95172E-06  4694   0.616E-03    0.263E-02
RMM:  20    -0.457222972586E+03   -0.13807E-02   -0.35977E-05  5932   0.715E-03    0.243E-02
RMM:  21    -0.457223486706E+03   -0.51412E-03   -0.11257E-05  4774   0.574E-03    0.241E-02
RMM:  22    -0.457224547501E+03   -0.10608E-02   -0.37687E-05  5726   0.646E-03    0.144E-02
RMM:  23    -0.457224767974E+03   -0.22047E-03   -0.75593E-06  4696   0.451E-03    0.116E-02
RMM:  24    -0.457224980374E+03   -0.21240E-03   -0.10658E-05  4819   0.365E-03    0.810E-03
RMM:  25    -0.457225001772E+03   -0.21399E-04   -0.25445E-06  4560   0.275E-03    0.602E-03
RMM:  26    -0.457224985561E+03    0.16211E-04   -0.38527E-06  4552   0.206E-03    0.379E-03
RMM:  27    -0.457224979842E+03    0.57190E-05   -0.59300E-07  3802   0.162E-03
  10 F= -.45722498E+03 E0= -.45724250E+03  d E =-.121539E+00  mag=   139.4311
       N       E                     dE             d eps       ncg     rms          rms(c)
DAV:   1    -0.457184632075E+03    0.40353E-01   -0.10907E+01  8286   0.470E+00    0.212E+00
RMM:   2    -0.457325844655E+03   -0.14121E+00   -0.18155E-01  8212   0.115E+00    0.418E+00
RMM:   3    -0.457703452375E+03   -0.37761E+00   -0.15454E-01  8218   0.918E-01    0.843E+00
RMM:   4    -0.457375020389E+03    0.32843E+00   -0.93785E-02  8211   0.698E-01    0.480E+00
RMM:   5    -0.457247008770E+03    0.12801E+00   -0.48155E-02  8207   0.576E-01    0.869E-01
RMM:   6    -0.457244379723E+03    0.26290E-02   -0.67442E-03  8216   0.191E-01    0.449E-01
RMM:   7    -0.457243736956E+03    0.64277E-03   -0.14589E-03  8215   0.925E-02    0.418E-01
RMM:   8    -0.457242951682E+03    0.78527E-03   -0.11293E-03  8174   0.858E-02    0.258E-01
RMM:   9    -0.457242560401E+03    0.39128E-03   -0.76182E-04  8215   0.638E-02    0.305E-01
RMM:  10    -0.457242006023E+03    0.55438E-03   -0.58966E-04  8170   0.604E-02    0.121E-01
RMM:  11    -0.457242057089E+03   -0.51066E-04   -0.20741E-04  8161   0.330E-02    0.156E-01
RMM:  12    -0.457241982254E+03    0.74835E-04   -0.98874E-05  8066   0.256E-02    0.359E-02
RMM:  13    -0.457242108637E+03   -0.12638E-03   -0.24648E-05  5523   0.118E-02    0.574E-02
RMM:  14    -0.457242222396E+03   -0.11376E-03   -0.14124E-05  4642   0.115E-02    0.211E-02
RMM:  15    -0.457242341227E+03   -0.11883E-03   -0.58400E-06  4518   0.602E-03    0.287E-02
RMM:  16    -0.457242659323E+03   -0.31810E-03   -0.68004E-06  4642   0.567E-03    0.163E-02
RMM:  17    -0.457242764989E+03   -0.10567E-03   -0.26153E-06  4493   0.392E-03    0.150E-02
RMM:  18    -0.457243016140E+03   -0.25115E-03   -0.29395E-06  4588   0.314E-03    0.113E-02
RMM:  19    -0.457243133804E+03   -0.11766E-03   -0.14709E-06  4477   0.266E-03    0.109E-02
RMM:  20    -0.457243444203E+03   -0.31040E-03   -0.35223E-06  4600   0.254E-03    0.889E-03
RMM:  21    -0.457243601571E+03   -0.15737E-03   -0.18953E-06  4509   0.248E-03    0.999E-03
RMM:  22    -0.457243983275E+03   -0.38170E-03   -0.82745E-06  4718   0.297E-03    0.756E-03
RMM:  23    -0.457244072811E+03   -0.89537E-04   -0.20591E-06  4519   0.227E-03    0.625E-03
RMM:  24    -0.457244187228E+03   -0.11442E-03   -0.37229E-06  4417   0.202E-03    0.426E-03
RMM:  25    -0.457244210376E+03   -0.23148E-04   -0.10555E-06  4125   0.162E-03    0.329E-03
RMM:  26    -0.457244221730E+03   -0.11355E-04   -0.13903E-06  3471   0.131E-03    0.221E-03
RMM:  27    -0.457244219759E+03    0.19717E-05   -0.24098E-07  2891   0.112E-03
  11 F= -.45724422E+03 E0= -.45726144E+03  d E =-.192399E-01  mag=   139.4316
       N       E                     dE             d eps       ncg     rms          rms(c)
DAV:   1    -0.457216237621E+03    0.27984E-01   -0.59770E+00  8286   0.348E+00    0.156E+00
RMM:   2    -0.457295963319E+03   -0.79726E-01   -0.98499E-02  8212   0.845E-01    0.316E+00
RMM:   3    -0.457501691155E+03   -0.20573E+00   -0.82911E-02  8218   0.671E-01    0.627E+00
RMM:   4    -0.457318876350E+03    0.18281E+00   -0.52467E-02  8209   0.523E-01    0.353E+00
RMM:   5    -0.457250240607E+03    0.68636E-01   -0.26298E-02  8206   0.427E-01    0.642E-01
RMM:   6    -0.457248671696E+03    0.15689E-02   -0.34644E-03  8215   0.137E-01    0.300E-01
RMM:   7    -0.457248358442E+03    0.31325E-03   -0.80827E-04  8212   0.676E-02    0.326E-01
RMM:   8    -0.457247787054E+03    0.57139E-03   -0.61961E-04  8171   0.637E-02    0.172E-01
RMM:   9    -0.457247567874E+03    0.21918E-03   -0.43865E-04  8209   0.483E-02    0.241E-01
RMM:  10    -0.457247179576E+03    0.38830E-03   -0.32439E-04  8160   0.450E-02    0.822E-02
RMM:  11    -0.457247206165E+03   -0.26589E-04   -0.11082E-04  8122   0.241E-02    0.115E-01
RMM:  12    -0.457247171740E+03    0.34425E-04   -0.48873E-05  7356   0.183E-02    0.255E-02
RMM:  13    -0.457247244091E+03   -0.72352E-04   -0.11426E-05  4548   0.833E-03    0.377E-02
RMM:  14    -0.457247340656E+03   -0.96565E-04   -0.69693E-06  4550   0.798E-03    0.155E-02
RMM:  15    -0.457247416606E+03   -0.75950E-04   -0.29277E-06  4458   0.428E-03    0.195E-02
RMM:  16    -0.457247641439E+03   -0.22483E-03   -0.38179E-06  4598   0.396E-03    0.122E-02
RMM:  17    -0.457247717368E+03   -0.75929E-04   -0.15267E-06  4454   0.298E-03    0.107E-02
RMM:  18    -0.457247879339E+03   -0.16197E-03   -0.15737E-06  4495   0.227E-03    0.817E-03
RMM:  19    -0.457247964883E+03   -0.85544E-04   -0.86412E-07  4346   0.197E-03    0.832E-03
RMM:  20    -0.457248198858E+03   -0.23397E-03   -0.24926E-06  4522   0.200E-03    0.682E-03
RMM:  21    -0.457248299982E+03   -0.10112E-03   -0.11118E-06  4360   0.185E-03    0.713E-03
RMM:  22    -0.457248554851E+03   -0.25487E-03   -0.52759E-06  4617   0.222E-03    0.551E-03
RMM:  23    -0.457248617751E+03   -0.62900E-04   -0.14452E-06  4339   0.178E-03    0.436E-03
RMM:  24    -0.457248685303E+03   -0.67552E-04   -0.23319E-06  3879   0.158E-03    0.283E-03
RMM:  25    -0.457248695701E+03   -0.10398E-04   -0.53787E-07  3410   0.124E-03    0.201E-03
RMM:  26    -0.457248700192E+03   -0.44908E-05   -0.63821E-07  2831   0.108E-03
  12 F= -.45724870E+03 E0= -.45726574E+03  d E =-.237203E-01  mag=   139.4313
       N       E                     dE             d eps       ncg     rms          rms(c)
DAV:   1    -0.457233863762E+03    0.14832E-01   -0.36250E+00  8289   0.270E+00    0.125E+00
RMM:   2    -0.457273779252E+03   -0.39915E-01   -0.58236E-02  8211   0.652E-01    0.214E+00
RMM:   3    -0.457402894428E+03   -0.12912E+00   -0.56040E-02  8218   0.558E-01    0.485E+00
RMM:   4    -0.457305690118E+03    0.97204E-01   -0.28773E-02  8214   0.383E-01    0.298E+00
RMM:   5    -0.457255611517E+03    0.50079E-01   -0.16636E-02  8200   0.334E-01    0.455E-01
RMM:   6    -0.457254986532E+03    0.62499E-03   -0.20869E-03  8203   0.103E-01    0.260E-01
RMM:   7    -0.457254886286E+03    0.10025E-03   -0.49490E-04  8207   0.534E-02    0.249E-01
RMM:   8    -0.457254645108E+03    0.24118E-03   -0.38948E-04  8163   0.500E-02    0.125E-01
RMM:   9    -0.457254719042E+03   -0.73934E-04   -0.27731E-04  8184   0.382E-02    0.192E-01
RMM:  10    -0.457254549693E+03    0.16935E-03   -0.18875E-04  8158   0.342E-02    0.674E-02
RMM:  11    -0.457254558557E+03   -0.88642E-05   -0.53612E-05  7359   0.170E-02
  13 F= -.45725456E+03 E0= -.45727143E+03  d E =-.585837E-02  mag=   139.4348
       N       E                     dE             d eps       ncg     rms          rms(c)
DAV:   1    -0.457241988557E+03    0.12561E-01   -0.24038E+00  8289   0.220E+00    0.102E+00
RMM:   2    -0.457270070556E+03   -0.28082E-01   -0.39527E-02  8213   0.536E-01    0.183E+00
RMM:   3    -0.457355683218E+03   -0.85613E-01   -0.37120E-02  8216   0.453E-01    0.398E+00
RMM:   4    -0.457289348533E+03    0.66335E-01   -0.19756E-02  8214   0.317E-01    0.242E+00
RMM:   5    -0.457256520714E+03    0.32828E-01   -0.11157E-02  8204   0.274E-01    0.382E-01
RMM:   6    -0.457256023225E+03    0.49749E-03   -0.13884E-03  8206   0.846E-02    0.203E-01
RMM:   7    -0.457255963115E+03    0.60110E-04   -0.33229E-04  8177   0.435E-02    0.210E-01
RMM:   8    -0.457255772381E+03    0.19073E-03   -0.26000E-04  8160   0.410E-02    0.982E-02
RMM:   9    -0.457255809373E+03   -0.36992E-04   -0.18779E-04  8160   0.314E-02    0.161E-01
RMM:  10    -0.457255686406E+03    0.12297E-03   -0.12584E-04  8125   0.280E-02    0.529E-02
RMM:  11    -0.457255702207E+03   -0.15801E-04   -0.31564E-05  6428   0.133E-02    0.657E-02
RMM:  12    -0.457255689263E+03    0.12944E-04   -0.15985E-05  4592   0.122E-02    0.151E-02
RMM:  13    -0.457255701629E+03   -0.12366E-04   -0.40942E-06  4410   0.504E-03    0.179E-02
RMM:  14    -0.457255723100E+03   -0.21471E-04   -0.21048E-06  4435   0.427E-03    0.830E-03
RMM:  15    -0.457255737867E+03   -0.14767E-04   -0.84259E-07  4372   0.237E-03    0.967E-03
RMM:  16    -0.457255774435E+03   -0.36568E-04   -0.71966E-07  4480   0.204E-03    0.615E-03
RMM:  17    -0.457255790261E+03   -0.15826E-04   -0.40042E-07  4227   0.161E-03    0.601E-03
RMM:  18    -0.457255812810E+03   -0.22549E-04   -0.23464E-07  3500   0.118E-03    0.334E-03
RMM:  19    -0.457255826161E+03   -0.13351E-04   -0.81474E-08  2287   0.961E-04    0.352E-03
RMM:  20    -0.457255851087E+03   -0.24926E-04   -0.10917E-07  1875   0.802E-04    0.263E-03
RMM:  21    -0.457255867384E+03   -0.16297E-04   -0.91189E-08  1644   0.827E-04    0.286E-03
RMM:  22    -0.457255901968E+03   -0.34584E-04   -0.59011E-07  2799   0.100E-03    0.215E-03
RMM:  23    -0.457255921498E+03   -0.19530E-04   -0.30595E-07  2537   0.934E-04    0.236E-03
RMM:  24    -0.457255945579E+03   -0.24081E-04   -0.38946E-07  2451   0.929E-04    0.181E-03
RMM:  25    -0.457255957616E+03   -0.12037E-04   -0.27196E-07  2309   0.911E-04    0.182E-03
RMM:  26    -0.457255973005E+03   -0.15389E-04   -0.69174E-07  2783   0.981E-04    0.890E-04
RMM:  27    -0.457255976023E+03   -0.30187E-05   -0.15227E-07  2076   0.881E-04
  14 F= -.45725598E+03 E0= -.45727268E+03  d E =-.727583E-02  mag=   139.4387
       N       E                     dE             d eps       ncg     rms          rms(c)
DAV:   1    -0.457237510370E+03    0.18463E-01   -0.41034E+00  8292   0.287E+00    0.126E+00
RMM:   2    -0.457264450812E+03   -0.26940E-01   -0.54619E-02  8217   0.638E-01    0.144E+00
RMM:   3    -0.457368933601E+03   -0.10448E+00   -0.51901E-02  8210   0.542E-01    0.426E+00
RMM:   4    -0.457307048276E+03    0.61885E-01   -0.20580E-02  8209   0.330E-01    0.283E+00
RMM:   5    -0.457260268748E+03    0.46780E-01   -0.13028E-02  8199   0.286E-01    0.284E-01
RMM:   6    -0.457260344656E+03   -0.75908E-04   -0.15675E-03  8198   0.856E-02    0.292E-01
RMM:   7    -0.457259942998E+03    0.40166E-03   -0.40008E-04  8169   0.489E-02    0.166E-01
RMM:   8    -0.457259899181E+03    0.43817E-04   -0.29637E-04  8176   0.419E-02    0.146E-01
RMM:   9    -0.457259849050E+03    0.50131E-04   -0.22405E-04  8163   0.326E-02    0.137E-01
RMM:  10    -0.457259771590E+03    0.77460E-04   -0.12734E-04  8150   0.270E-02    0.634E-02
RMM:  11    -0.457259773248E+03   -0.16579E-05   -0.26740E-05  5800   0.127E-02
  15 F= -.45725977E+03 E0= -.45727629E+03  d E =-.379722E-02  mag=   139.4431
       N       E                     dE             d eps       ncg     rms          rms(c)
DAV:   1    -0.457230892279E+03    0.28879E-01   -0.54870E+00  8205   0.332E+00    0.146E+00
RMM:   2    -0.457267303280E+03   -0.36411E-01   -0.73780E-02  8219   0.742E-01    0.168E+00
RMM:   3    -0.457409531048E+03   -0.14223E+00   -0.69644E-02  8207   0.628E-01    0.496E+00
RMM:   4    -0.457324143975E+03    0.85387E-01   -0.27804E-02  8207   0.383E-01    0.327E+00
RMM:   5    -0.457261540455E+03    0.62604E-01   -0.17646E-02  8201   0.333E-01    0.336E-01
RMM:   6    -0.457261607376E+03   -0.66921E-04   -0.21516E-03  8202   0.101E-01    0.347E-01
RMM:   7    -0.457261020812E+03    0.58656E-03   -0.53923E-04  8188   0.574E-02    0.191E-01
RMM:   8    -0.457260959742E+03    0.61070E-04   -0.39690E-04  8184   0.485E-02    0.171E-01
RMM:   9    -0.457260866309E+03    0.93433E-04   -0.29400E-04  8175   0.373E-02    0.153E-01
RMM:  10    -0.457260783038E+03    0.83270E-04   -0.17173E-04  8160   0.312E-02    0.769E-02
RMM:  11    -0.457260799023E+03   -0.15985E-04   -0.37908E-05  6783   0.148E-02    0.554E-02
RMM:  12    -0.457260798318E+03    0.70541E-06   -0.15102E-05  4540   0.114E-02
  16 F= -.45726080E+03 E0= -.45727717E+03  d E =-.482229E-02  mag=   139.4500
       N       E                     dE             d eps       ncg     rms          rms(c)
DAV:   1    -0.457243301166E+03    0.17498E-01   -0.35925E+00  8214   0.268E+00    0.122E+00
RMM:   2    -0.457267697973E+03   -0.24397E-01   -0.46969E-02  8215   0.584E-01    0.133E+00
RMM:   3    -0.457368280365E+03   -0.10058E+00   -0.46301E-02  8207   0.508E-01    0.417E+00
RMM:   4    -0.457305855226E+03    0.62425E-01   -0.18669E-02  8208   0.317E-01    0.266E+00
RMM:   5    -0.457264612078E+03    0.41243E-01   -0.11140E-02  8191   0.263E-01    0.249E-01
RMM:   6    -0.457264726986E+03   -0.11491E-03   -0.13303E-03  8192   0.788E-02    0.288E-01
RMM:   7    -0.457264379417E+03    0.34757E-03   -0.39395E-04  8181   0.489E-02    0.172E-01
RMM:   8    -0.457264314112E+03    0.65305E-04   -0.27015E-04  8165   0.404E-02    0.130E-01
RMM:   9    -0.457264346392E+03   -0.32280E-04   -0.22178E-04  8161   0.330E-02    0.150E-01
RMM:  10    -0.457264266750E+03    0.79641E-04   -0.13046E-04  8143   0.276E-02    0.569E-02
RMM:  11    -0.457264293638E+03   -0.26888E-04   -0.33291E-05  6445   0.138E-02    0.652E-02
RMM:  12    -0.457264284076E+03    0.95620E-05   -0.15137E-05  4579   0.119E-02
  17 F= -.45726428E+03 E0= -.45728054E+03  d E =-.348576E-02  mag=   139.4550
       N       E                     dE             d eps       ncg     rms          rms(c)
DAV:   1    -0.457251033875E+03    0.13260E-01   -0.25176E+00  8166   0.224E+00    0.102E+00
RMM:   2    -0.457268119097E+03   -0.17085E-01   -0.32799E-02  8214   0.487E-01    0.112E+00
RMM:   3    -0.457333881896E+03   -0.65763E-01   -0.32656E-02  8212   0.428E-01    0.339E+00
RMM:   4    -0.457296709743E+03    0.37172E-01   -0.13018E-02  8211   0.266E-01    0.228E+00
RMM:   5    -0.457265908739E+03    0.30801E-01   -0.77595E-03  8193   0.219E-01    0.201E-01
RMM:   6    -0.457266019506E+03   -0.11077E-03   -0.91176E-04  8189   0.652E-02    0.241E-01
RMM:   7    -0.457265772574E+03    0.24693E-03   -0.27641E-04  8168   0.407E-02    0.144E-01
RMM:   8    -0.457265724229E+03    0.48345E-04   -0.18787E-04  8159   0.337E-02    0.106E-01
RMM:   9    -0.457265748444E+03   -0.24215E-04   -0.15553E-04  8158   0.277E-02    0.127E-01
RMM:  10    -0.457265690237E+03    0.58207E-04   -0.89823E-05  8099   0.230E-02    0.459E-02
RMM:  11    -0.457265708365E+03   -0.18128E-04   -0.20435E-05  5020   0.112E-02    0.538E-02
RMM:  12    -0.457265702704E+03    0.56604E-05   -0.11813E-05  4451   0.108E-02
  18 F= -.45726570E+03 E0= -.45728187E+03  d E =-.490439E-02  mag=   139.4590
       N       E                     dE             d eps       ncg     rms          rms(c)
DAV:   1    -0.457205837466E+03    0.59871E-01   -0.10075E+01  8160   0.449E+00    0.206E+00
RMM:   2    -0.457277222718E+03   -0.71385E-01   -0.13799E-01  8218   0.101E+00    0.236E+00
RMM:   3    -0.457600452941E+03   -0.32323E+00   -0.13291E-01  8212   0.854E-01    0.741E+00
RMM:   4    -0.457378020676E+03    0.22243E+00   -0.55781E-02  8213   0.543E-01    0.443E+00
RMM:   5    -0.457265696910E+03    0.11232E+00   -0.33442E-02  8194   0.457E-01    0.458E-01
RMM:   6    -0.457266172597E+03   -0.47569E-03   -0.41462E-03  8195   0.141E-01    0.545E-01
RMM:   7    -0.457264859680E+03    0.13129E-02   -0.11927E-03  8217   0.873E-02    0.282E-01
RMM:   8    -0.457264704858E+03    0.15482E-03   -0.80393E-04  8179   0.699E-02    0.235E-01
RMM:   9    -0.457264637218E+03    0.67640E-04   -0.61491E-04  8207   0.544E-02    0.232E-01
RMM:  10    -0.457264439475E+03    0.19774E-03   -0.37907E-04  8173   0.466E-02    0.109E-01
RMM:  11    -0.457264464485E+03   -0.25010E-04   -0.11795E-04  8121   0.251E-02    0.116E-01
RMM:  12    -0.457264403266E+03    0.61219E-04   -0.44839E-05  7225   0.175E-02    0.205E-02
RMM:  13    -0.457264417624E+03   -0.14358E-04   -0.11827E-05  4552   0.862E-03    0.373E-02
RMM:  14    -0.457264428057E+03   -0.10433E-04   -0.71772E-06  4493   0.836E-03    0.156E-02
RMM:  15    -0.457264440872E+03   -0.12815E-04   -0.29676E-06  4401   0.464E-03    0.200E-02
RMM:  16    -0.457264469467E+03   -0.28595E-04   -0.20157E-06  4500   0.407E-03    0.103E-02
RMM:  17    -0.457264482002E+03   -0.12534E-04   -0.91345E-07  4399   0.254E-03    0.103E-02
RMM:  18    -0.457264508176E+03   -0.26174E-04   -0.60172E-07  4435   0.197E-03    0.597E-03
RMM:  19    -0.457264519424E+03   -0.11248E-04   -0.29630E-07  4040   0.137E-03    0.565E-03
RMM:  20    -0.457264541316E+03   -0.21892E-04   -0.22238E-07  3063   0.107E-03    0.389E-03
RMM:  21    -0.457264551480E+03   -0.10164E-04   -0.72004E-08  2168   0.924E-04    0.359E-03
RMM:  22    -0.457264579528E+03   -0.28047E-04   -0.27775E-07  2481   0.949E-04    0.304E-03
RMM:  23    -0.457264597293E+03   -0.17765E-04   -0.25029E-07  2508   0.959E-04    0.289E-03
RMM:  24    -0.457264631940E+03   -0.34648E-04   -0.97666E-07  3251   0.114E-03    0.206E-03
RMM:  25    -0.457264641470E+03   -0.95301E-05   -0.22531E-07  2420   0.952E-04
  19 F= -.45726464E+03 E0= -.45728070E+03  d E =-.384315E-02  mag=   139.4681
       N       E                     dE             d eps       ncg     rms          rms(c)
DAV:   1    -0.457236548108E+03    0.28084E-01   -0.50871E+00  8187   0.319E+00    0.146E+00
RMM:   2    -0.457269560689E+03   -0.33013E-01   -0.66829E-02  8215   0.695E-01    0.151E+00
RMM:   3    -0.457313349229E+03   -0.43789E-01   -0.63266E-02  8212   0.612E-01    0.313E+00
RMM:   4    -0.457276497205E+03    0.36852E-01   -0.23950E-02  8207   0.418E-01    0.127E+00
RMM:   5    -0.457266975804E+03    0.95214E-02   -0.21308E-03  8210   0.976E-02    0.362E-01
RMM:   6    -0.457266511432E+03    0.46437E-03   -0.91607E-04  8177   0.714E-02    0.268E-01
RMM:   7    -0.457266144965E+03    0.36647E-03   -0.41519E-04  8199   0.502E-02    0.169E-01
RMM:   8    -0.457266147806E+03   -0.28411E-05   -0.37486E-04  8170   0.465E-02    0.184E-01
RMM:   9    -0.457266094859E+03    0.52947E-04   -0.30829E-04  8181   0.385E-02    0.150E-01
RMM:  10    -0.457266013148E+03    0.81711E-04   -0.14709E-04  8153   0.290E-02    0.566E-02
RMM:  11    -0.457266032930E+03   -0.19782E-04   -0.28759E-05  6124   0.133E-02    0.596E-02
RMM:  12    -0.457266021395E+03    0.11535E-04   -0.13481E-05  4560   0.114E-02    0.130E-02
RMM:  13    -0.457266027667E+03   -0.62722E-05   -0.37863E-06  4451   0.484E-03
  20 F= -.45726603E+03 E0= -.45728218E+03  d E =-.522935E-02  mag=   139.4652
       N       E                     dE             d eps       ncg     rms          rms(c)
DAV:   1    -0.457251769820E+03    0.14252E-01   -0.31466E+00  8307   0.252E+00    0.112E+00
RMM:   2    -0.457273019779E+03   -0.21250E-01   -0.42886E-02  8218   0.565E-01    0.132E+00
RMM:   3    -0.457296649516E+03   -0.23630E-01   -0.42180E-02  8206   0.502E-01    0.241E+00
RMM:   4    -0.457269576875E+03    0.27073E-01   -0.14225E-02  8206   0.329E-01    0.384E-01
RMM:   5    -0.457269236341E+03    0.34053E-03   -0.11250E-03  8219   0.749E-02    0.240E-01
RMM:   6    -0.457269762965E+03   -0.52662E-03   -0.27937E-04  8155   0.342E-02    0.370E-01
RMM:   7    -0.457268922727E+03    0.84024E-03   -0.28724E-04  8165   0.381E-02    0.195E-01
RMM:   8    -0.457268748180E+03    0.17455E-03   -0.26909E-04  8167   0.398E-02    0.108E-01
RMM:   9    -0.457268782388E+03   -0.34208E-04   -0.23277E-04  8170   0.338E-02    0.160E-01
RMM:  10    -0.457268669904E+03    0.11248E-03   -0.11918E-04  8144   0.268E-02    0.395E-02
RMM:  11    -0.457268690310E+03   -0.20406E-04   -0.22371E-05  5298   0.115E-02    0.550E-02
RMM:  12    -0.457268686175E+03    0.41351E-05   -0.11706E-05  4485   0.109E-02
  21 F= -.45726869E+03 E0= -.45728472E+03  d E =-.265851E-02  mag=   139.4643
