SQS-NiFe                                
           1
    10.111630    0.000000    0.000000
    -5.055815    8.756928    0.000000
     0.000000    0.000000   21.312646
   Fe   Ni
  49  15
Direct configuration=     1
   0.00359321  0.99770921  0.28723916
   0.50178105  0.99924511  0.28712365
   0.74409900  0.99897133  0.28667286
   0.25169411  0.25164597  0.28659796
   0.08873200  0.16149400  0.09503655
   0.08956650  0.16132981  0.37399860
   0.32962600  0.16609800  0.09949802
   0.32825638  0.16714475  0.37539782
   0.16766300  0.08094400  0.19172241
   0.58333000  0.16550300  0.09887366
   0.58079969  0.15959321  0.37413313
   0.42207800  0.08742500  0.19156116
   0.82651500  0.16651000  0.09770193
   0.82492390  0.16338150  0.37396510
   0.66737600  0.08327700  0.19362076
   0.00245100  0.51229183  0.28679738
   0.25675451  0.50800657  0.28753517
   0.49983966  0.50018806  0.28772169
   0.33859900  0.41583700  0.09384100
   0.33737641  0.41903197  0.37327925
   0.75669978  0.50882720  0.28754121
   0.58633600  0.42229400  0.09867290
   0.58304156  0.42041193  0.37409212
   0.42032800  0.32671800  0.19226484
   0.82677100  0.41676200  0.09643693
   0.83765953  0.42414459  0.37374945
   0.66249300  0.33542400  0.19079821
   0.99249463  0.74597301  0.28791617
   0.24939539  0.74521161  0.28766025
   0.08604600  0.67086900  0.09664380
   0.08145776  0.66410422  0.37509884
   0.50232500  0.74779435  0.28756973
   0.33005900  0.66135600  0.09463213
   0.33124197  0.66157854  0.37550157
   0.16407000  0.58904200  0.19558362
   0.74763196  0.74989903  0.28473055
   0.58008200  0.66096300  0.09597033
   0.58085604  0.65914345  0.37491081
   0.83213700  0.66199500  0.09747502
   0.83050964  0.66062272  0.37657622
   0.67214400  0.58529400  0.19313760
   0.91907500  0.58733100  0.19487907
   0.08603600  0.91635500  0.09815022
   0.08633188  0.92045227  0.37446086
   0.32743000  0.91932200  0.09737653
   0.33505400  0.92181336  0.37390973
   0.16274300  0.83153600  0.19150654
   0.66878300  0.83083000  0.19650084
   0.91852300  0.82706000  0.19503131
   0.24938517  0.99788349  0.28463490
   0.00209363  0.25009240  0.28607203
   0.50073510  0.25262110  0.28546564
   0.74925117  0.25301633  0.28473504
   0.91424100  0.07929400  0.19382007
   0.08260800  0.41708000  0.09669464
   0.08264349  0.41655886  0.37772058
   0.17077300  0.33437100  0.19389387
   0.91567000  0.33646400  0.19341477
   0.41923600  0.58471500  0.19420852
   0.58190700  0.91526900  0.09685385
   0.57984730  0.91398099  0.37920335
   0.41467000  0.83428900  0.19444763
   0.83399900  0.91457100  0.09684514
   0.83555145  0.91698200  0.37866653
Direct configuration=     2
   0.00077417  0.99977979  0.28481408
   0.50054759  0.99957240  0.28542820
   0.74885787  0.00054797  0.28709878
   0.25089614  0.24979347  0.28384672
   0.08873200  0.16149400  0.09503655
   0.08619946  0.16463585  0.37673252
   0.32962600  0.16609800  0.09949802
   0.33126962  0.16656863  0.37757480
   0.16766300  0.08094400  0.19172241
   0.58333000  0.16550300  0.09887366
   0.58268736  0.16412950  0.37664876
   0.42207800  0.08742500  0.19156116
   0.82651500  0.16651000  0.09770193
   0.82799854  0.16423412  0.37589724
   0.66737600  0.08327700  0.19362076
   0.00032210  0.49997190  0.28532662
   0.25078081  0.50107229  0.28540087
   0.50028229  0.49858489  0.28385859
   0.33859900  0.41583700  0.09384100
   0.33388812  0.41637698  0.37723806
   0.74789479  0.49891304  0.28515182
   0.58633600  0.42229400  0.09867290
   0.58408151  0.41759633  0.37748454
   0.42032800  0.32671800  0.19226484
   0.82677100  0.41676200  0.09643693
   0.83464664  0.42015437  0.37727217
   0.66249300  0.33542400  0.19079821
   0.00107586  0.75367060  0.28696030
   0.25203884  0.75276949  0.28612070
   0.08604600  0.67086900  0.09664380
   0.08359076  0.66726329  0.37866859
   0.50086856  0.75031485  0.28597823
   0.33005900  0.66135600  0.09463213
   0.33311059  0.66481181  0.37849797
   0.16407000  0.58904200  0.19558362
   0.74986527  0.75256387  0.28590810
   0.58008200  0.66096300  0.09597033
   0.58438510  0.66447861  0.37810226
   0.83213700  0.66199500  0.09747502
   0.83127178  0.66477547  0.37960464
   0.67214400  0.58529400  0.19313760
   0.91907500  0.58733100  0.19487907
   0.08603600  0.91635500  0.09815022
   0.08540586  0.91656065  0.37734462
   0.32743000  0.91932200  0.09737653
   0.33393181  0.91929525  0.37669323
   0.16274300  0.83153600  0.19150654
   0.66878300  0.83083000  0.19650084
   0.91852300  0.82706000  0.19503131
   0.25116693  0.99891072  0.28306355
   0.00058756  0.25099060  0.28559669
   0.50164142  0.25058862  0.28486764
   0.75020152  0.25395471  0.28362780
   0.91424100  0.07929400  0.19382007
   0.08260800  0.41708000  0.09669464
   0.08201962  0.41462488  0.37804873
   0.17077300  0.33437100  0.19389387
   0.91567000  0.33646400  0.19341477
   0.41923600  0.58471500  0.19420852
   0.58190700  0.91526900  0.09685385
   0.58104387  0.91317082  0.38050873
   0.41467000  0.83428900  0.19444763
   0.83399900  0.91457100  0.09684514
   0.83357063  0.91630877  0.37928024
Direct configuration=     3
  -0.00043135  0.00066524  0.28377704
   0.50002012  0.99971236  0.28470317
   0.75089292  0.00122219  0.28728091
   0.25055490  0.24900129  0.28267020
   0.08873200  0.16149400  0.09503655
   0.08475960  0.16604962  0.37790164
   0.32962600  0.16609800  0.09949802
   0.33255818  0.16632227  0.37850575
   0.16766300  0.08094400  0.19172241
   0.58333000  0.16550300  0.09887366
   0.58349460  0.16606936  0.37772453
   0.42207800  0.08742500  0.19156116
   0.82651500  0.16651000  0.09770193
   0.82931337  0.16459872  0.37672349
   0.66737600  0.08327700  0.19362076
  -0.00058829  0.49470349  0.28469768
   0.24822625  0.49810695  0.28448817
   0.50047158  0.49789932  0.28220660
   0.33859900  0.41583700  0.09384100
   0.33239641  0.41524161  0.37893098
   0.74412948  0.49467342  0.28413004
   0.58633600  0.42229400  0.09867290
   0.58452623  0.41639228  0.37893525
   0.42032800  0.32671800  0.19226484
   0.82677100  0.41676200  0.09643693
   0.83335823  0.41844801  0.37877861
   0.66249300  0.33542400  0.19079821
   0.00474549  0.75696235  0.28655154
   0.25316927  0.75600149  0.28546234
   0.08604600  0.67086900  0.09664380
   0.08450289  0.66861422  0.38019514
   0.50024574  0.75139269  0.28529766
   0.33005900  0.66135600  0.09463213
   0.33390968  0.66619446  0.37977933
   0.16407000  0.58904200  0.19558362
   0.75082030  0.75370344  0.28641166
   0.58008200  0.66096300  0.09597033
   0.58589424  0.66676011  0.37946703
   0.83213700  0.66199500  0.09747502
   0.83159770  0.66655132  0.38089970
   0.67214400  0.58529400  0.19313760
   0.91907500  0.58733100  0.19487907
   0.08603600  0.91635500  0.09815022
   0.08500986  0.91489646  0.37857781
   0.32743000  0.91932200  0.09737653
   0.33345193  0.91821842  0.37788354
   0.16274300  0.83153600  0.19150654
   0.66878300  0.83083000  0.19650084
   0.91852300  0.82706000  0.19503131
   0.25192887  0.99935000  0.28239158
  -0.00005649  0.25137470  0.28539342
   0.50202900  0.24971947  0.28461192
   0.75060792  0.25435600  0.28315431
   0.91424100  0.07929400  0.19382007
   0.08260800  0.41708000  0.09669464
   0.08175283  0.41379785  0.37818905
   0.17077300  0.33437100  0.19389387
   0.91567000  0.33646400  0.19341477
   0.41923600  0.58471500  0.19420852
   0.58190700  0.91526900  0.09685385
   0.58155556  0.91282436  0.38106695
   0.41467000  0.83428900  0.19444763
   0.83399900  0.91457100  0.09684514
   0.83272356  0.91602087  0.37954268
Direct configuration=     4
   0.00061877  0.00328591  0.28441242
   0.50241072  0.00261909  0.28549017
   0.75224688  0.00302755  0.28815315
   0.25022080  0.24665322  0.28339839
   0.08873200  0.16149400  0.09503655
   0.08321820  0.16644025  0.37909919
   0.32962600  0.16609800  0.09949802
   0.33279862  0.16571386  0.37927966
   0.16766300  0.08094400  0.19172241
   0.58333000  0.16550300  0.09887366
   0.58541590  0.16790233  0.37922326
   0.42207800  0.08742500  0.19156116
   0.82651500  0.16651000  0.09770193
   0.83023002  0.16493504  0.37824850
   0.66737600  0.08327700  0.19362076
  -0.00210220  0.49304753  0.28610800
   0.24780761  0.49723918  0.28505975
   0.49948446  0.49794271  0.28322181
   0.33859900  0.41583700  0.09384100
   0.33261409  0.41541310  0.38039754
   0.74562181  0.49493571  0.28519197
   0.58633600  0.42229400  0.09867290
   0.58440096  0.41638456  0.38075653
   0.42032800  0.32671800  0.19226484
   0.82677100  0.41676200  0.09643693
   0.83237442  0.41800032  0.38075470
   0.66249300  0.33542400  0.19079821
   0.00518342  0.75416433  0.28743344
   0.25138152  0.75444539  0.28606114
   0.08604600  0.67086900  0.09664380
   0.08466781  0.66837412  0.38179398
   0.49818614  0.75040315  0.28601329
   0.33005900  0.66135600  0.09463213
   0.33458604  0.66738888  0.38103162
   0.16407000  0.58904200  0.19558362
   0.75142858  0.75150766  0.28806322
   0.58008200  0.66096300  0.09597033
   0.58504020  0.66743262  0.38090744
   0.83213700  0.66199500  0.09747502
   0.83303439  0.66678730  0.38193741
   0.67214400  0.58529400  0.19313760
   0.91907500  0.58733100  0.19487907
   0.08603600  0.91635500  0.09815022
   0.08434884  0.91486197  0.38002900
   0.32743000  0.91932200  0.09737653
   0.33384914  0.91691112  0.37971337
   0.16274300  0.83153600  0.19150654
   0.66878300  0.83083000  0.19650084
   0.91852300  0.82706000  0.19503131
   0.25345769  0.00227785  0.28305417
  -0.00131498  0.25013984  0.28519015
   0.50118971  0.24726218  0.28536944
   0.75004143  0.25251339  0.28382776
   0.91424100  0.07929400  0.19382007
   0.08260800  0.41708000  0.09669464
   0.08192505  0.41407881  0.37868977
   0.17077300  0.33437100  0.19389387
   0.91567000  0.33646400  0.19341477
   0.41923600  0.58471500  0.19420852
   0.58190700  0.91526900  0.09685385
   0.58268041  0.91384080  0.38137749
   0.41467000  0.83428900  0.19444763
   0.83399900  0.91457100  0.09684514
   0.83303633  0.91718396  0.38046894
Direct configuration=     5
   0.00302078  0.00928032  0.28586574
   0.50787887  0.00926780  0.28729032
   0.75534387  0.00715706  0.29014827
   0.24945659  0.24128238  0.28506403
   0.08873200  0.16149400  0.09503655
   0.07969247  0.16733376  0.38183842
   0.32962600  0.16609800  0.09949802
   0.33334859  0.16432223  0.38104985
   0.16766300  0.08094400  0.19172241
   0.58333000  0.16550300  0.09887366
   0.58981061  0.17209498  0.38265139
   0.42207800  0.08742500  0.19156116
   0.82651500  0.16651000  0.09770193
   0.83232672  0.16570432  0.38173674
   0.66737600  0.08327700  0.19362076
  -0.00556504  0.48925975  0.28933391
   0.24685003  0.49525427  0.28636718
   0.49722656  0.49804196  0.28554397
   0.33859900  0.41583700  0.09384100
   0.33311201  0.41580535  0.38375208
   0.74903529  0.49553567  0.28762097
   0.58633600  0.42229400  0.09867290
   0.58411442  0.41636689  0.38492246
   0.42032800  0.32671800  0.19226484
   0.82677100  0.41676200  0.09643693
   0.83012411  0.41697629  0.38527472
   0.66249300  0.33542400  0.19079821
   0.00618514  0.74776425  0.28945066
   0.24729232  0.75088603  0.28743082
   0.08604600  0.67086900  0.09664380
   0.08504503  0.66782491  0.38545109
   0.49347510  0.74813971  0.28765019
   0.33005900  0.66135600  0.09463213
   0.33613310  0.67012095  0.38389606
   0.16407000  0.58904200  0.19558362
   0.75281993  0.74648515  0.29184091
   0.58008200  0.66096300  0.09597033
   0.58308672  0.66897089  0.38420217
   0.83213700  0.66199500  0.09747502
   0.83632059  0.66732708  0.38431101
   0.67214400  0.58529400  0.19313760
   0.91907500  0.58733100  0.19487907
   0.08603600  0.91635500  0.09815022
   0.08283684  0.91478307  0.38334839
   0.32743000  0.91932200  0.09737653
   0.33475770  0.91392085  0.38389883
   0.16274300  0.83153600  0.19150654
   0.66878300  0.83083000  0.19650084
   0.91852300  0.82706000  0.19503131
   0.25695463  0.00897488  0.28456975
  -0.00419360  0.24731528  0.28472519
   0.49926995  0.24164149  0.28710216
   0.74874567  0.24829868  0.28536819
   0.91424100  0.07929400  0.19382007
   0.08260800  0.41708000  0.09669464
   0.08231899  0.41472148  0.37983507
   0.17077300  0.33437100  0.19389387
   0.91567000  0.33646400  0.19341477
   0.41923600  0.58471500  0.19420852
   0.58190700  0.91526900  0.09685385
   0.58525334  0.91616573  0.38208781
   0.41467000  0.83428900  0.19444763
   0.83399900  0.91457100  0.09684514
   0.83375176  0.91984434  0.38258763
Direct configuration=     6
   0.00314078  0.00686621  0.28721589
   0.50682305  0.00748960  0.28860937
   0.75455872  0.00483645  0.29088398
   0.25009212  0.24306022  0.28653711
   0.08873200  0.16149400  0.09503655
   0.07970434  0.16820065  0.38320063
   0.32962600  0.16609800  0.09949802
   0.33319661  0.16352360  0.38238473
   0.16766300  0.08094400  0.19172241
   0.58333000  0.16550300  0.09887366
   0.59171850  0.17320645  0.38468157
   0.42207800  0.08742500  0.19156116
   0.82651500  0.16651000  0.09770193
   0.83310122  0.16719609  0.38367458
   0.66737600  0.08327700  0.19362076
  -0.00719421  0.48802555  0.29081555
   0.24620167  0.49359772  0.28752788
   0.49651908  0.49652567  0.28754456
   0.33859900  0.41583700  0.09384100
   0.33346386  0.41593125  0.38529483
   0.74785781  0.49328849  0.28937901
   0.58633600  0.42229400  0.09867290
   0.58345219  0.41708822  0.38665338
   0.42032800  0.32671800  0.19226484
   0.82677100  0.41676200  0.09643693
   0.82984929  0.41641514  0.38788198
   0.66249300  0.33542400  0.19079821
   0.00736015  0.74862618  0.29066619
   0.24770235  0.75127298  0.28881256
   0.08604600  0.67086900  0.09664380
   0.08551918  0.66709027  0.38792012
   0.49305513  0.74866768  0.28859687
   0.33005900  0.66135600  0.09463213
   0.33598554  0.67030197  0.38543608
   0.16407000  0.58904200  0.19558362
   0.75367088  0.74664648  0.29301407
   0.58008200  0.66096300  0.09597033
   0.58222625  0.66954071  0.38619997
   0.83213700  0.66199500  0.09747502
   0.83750641  0.66716373  0.38617409
   0.67214400  0.58529400  0.19313760
   0.91907500  0.58733100  0.19487907
   0.08603600  0.91635500  0.09815022
   0.08263754  0.91518726  0.38445009
   0.32743000  0.91932200  0.09737653
   0.33556190  0.91334793  0.38547793
   0.16274300  0.83153600  0.19150654
   0.66878300  0.83083000  0.19650084
   0.91852300  0.82706000  0.19503131
   0.25585606  0.00620584  0.28607114
  -0.00367108  0.24774176  0.28520968
   0.50112460  0.24413267  0.28832602
   0.74923568  0.24873122  0.28671697
   0.91424100  0.07929400  0.19382007
   0.08260800  0.41708000  0.09669464
   0.08276609  0.41540105  0.38089585
   0.17077300  0.33437100  0.19389387
   0.91567000  0.33646400  0.19341477
   0.41923600  0.58471500  0.19420852
   0.58190700  0.91526900  0.09685385
   0.58660951  0.91802382  0.38277128
   0.41467000  0.83428900  0.19444763
   0.83399900  0.91457100  0.09684514
   0.83424158  0.92053111  0.38399063
Direct configuration=     7
   0.00335241  0.00260876  0.28959699
   0.50496104  0.00435361  0.29093563
   0.75317405  0.00074386  0.29218147
   0.25121292  0.24619558  0.28913499
   0.08873200  0.16149400  0.09503655
   0.07972528  0.16972948  0.38560300
   0.32962600  0.16609800  0.09949802
   0.33292860  0.16211514  0.38473889
   0.16766300  0.08094400  0.19172241
   0.58333000  0.16550300  0.09887366
   0.59508321  0.17516663  0.38826195
   0.42207800  0.08742500  0.19156116
   0.82651500  0.16651000  0.09770193
   0.83446710  0.16982695  0.38709212
   0.66737600  0.08327700  0.19362076
  -0.01006737  0.48584893  0.29342853
   0.24505824  0.49067626  0.28957486
   0.49527138  0.49385158  0.29107277
   0.33859900  0.41583700  0.09384100
   0.33408439  0.41615329  0.38801560
   0.74578122  0.48932542  0.29247944
   0.58633600  0.42229400  0.09867290
   0.58228431  0.41836034  0.38970601
   0.42032800  0.32671800  0.19226484
   0.82677100  0.41676200  0.09643693
   0.82936462  0.41542550  0.39248008
   0.66249300  0.33542400  0.19079821
   0.00943237  0.75014626  0.29280988
   0.24842546  0.75195541  0.29124936
   0.08604600  0.67086900  0.09664380
   0.08635539  0.66579466  0.39227443
   0.49231449  0.74959881  0.29026640
   0.33005900  0.66135600  0.09463213
   0.33572532  0.67062121  0.38815202
   0.16407000  0.58904200  0.19558362
   0.75517159  0.74693101  0.29508301
   0.58008200  0.66096300  0.09597033
   0.58070874  0.67054564  0.38972325
   0.83213700  0.66199500  0.09747502
   0.83959769  0.66687565  0.38945978
   0.67214400  0.58529400  0.19313760
   0.91907500  0.58733100  0.19487907
   0.08603600  0.91635500  0.09815022
   0.08228606  0.91590009  0.38639302
   0.32743000  0.91932200  0.09737653
   0.33698018  0.91233755  0.38826280
   0.16274300  0.83153600  0.19150654
   0.66878300  0.83083000  0.19650084
   0.91852300  0.82706000  0.19503131
   0.25391864  0.00132242  0.28871896
  -0.00274958  0.24849388  0.28606412
   0.50439542  0.24852606  0.29048438
   0.75009986  0.24949403  0.28909566
   0.91424100  0.07929400  0.19382007
   0.08260800  0.41708000  0.09669464
   0.08355458  0.41659953  0.38276660
   0.17077300  0.33437100  0.19389387
   0.91567000  0.33646400  0.19341477
   0.41923600  0.58471500  0.19420852
   0.58190700  0.91526900  0.09685385
   0.58900122  0.92130071  0.38397663
   0.41467000  0.83428900  0.19444763
   0.83399900  0.91457100  0.09684514
   0.83510540  0.92174228  0.38646492
Direct configuration=     8
   0.00332929  0.00307392  0.28933684
   0.50516447  0.00469623  0.29068147
   0.75332533  0.00119100  0.29203971
   0.25109047  0.24585302  0.28885116
   0.08873200  0.16149400  0.09503655
   0.07972299  0.16956244  0.38534053
   0.32962600  0.16609800  0.09949802
   0.33295788  0.16226903  0.38448168
   0.16766300  0.08094400  0.19172241
   0.58333000  0.16550300  0.09887366
   0.59471559  0.17495247  0.38787077
   0.42207800  0.08742500  0.19156116
   0.82651500  0.16651000  0.09770193
   0.83431786  0.16953951  0.38671873
   0.66737600  0.08327700  0.19362076
  -0.00975346  0.48608674  0.29314304
   0.24518316  0.49099544  0.28935121
   0.49540770  0.49414375  0.29068729
   0.33859900  0.41583700  0.09384100
   0.33401659  0.41612903  0.38771834
   0.74600810  0.48975841  0.29214069
   0.58633600  0.42229400  0.09867290
   0.58241190  0.41822135  0.38937249
   0.42032800  0.32671800  0.19226484
   0.82677100  0.41676200  0.09643693
   0.82941758  0.41553362  0.39197771
   0.66249300  0.33542400  0.19079821
   0.00920597  0.74998018  0.29257567
   0.24834645  0.75188085  0.29098312
   0.08604600  0.67086900  0.09664380
   0.08626403  0.66593621  0.39179869
   0.49239541  0.74949708  0.29008399
   0.33005900  0.66135600  0.09463213
   0.33575375  0.67058633  0.38785529
   0.16407000  0.58904200  0.19558362
   0.75500763  0.74689992  0.29485696
   0.58008200  0.66096300  0.09597033
   0.58087454  0.67043584  0.38933831
   0.83213700  0.66199500  0.09747502
   0.83936920  0.66690712  0.38910079
   0.67214400  0.58529400  0.19313760
   0.91907500  0.58733100  0.19487907
   0.08603600  0.91635500  0.09815022
   0.08232446  0.91582221  0.38618074
   0.32743000  0.91932200  0.09737653
   0.33682523  0.91244794  0.38795853
   0.16274300  0.83153600  0.19150654
   0.66878300  0.83083000  0.19650084
   0.91852300  0.82706000  0.19503131
   0.25413031  0.00185596  0.28842967
  -0.00285026  0.24841171  0.28597077
   0.50403806  0.24804605  0.29024856
   0.75000544  0.24941069  0.28883577
   0.91424100  0.07929400  0.19382007
   0.08260800  0.41708000  0.09669464
   0.08346843  0.41646859  0.38256221
   0.17077300  0.33437100  0.19389387
   0.91567000  0.33646400  0.19341477
   0.41923600  0.58471500  0.19420852
   0.58190700  0.91526900  0.09685385
   0.58873991  0.92094269  0.38384494
   0.41467000  0.83428900  0.19444763
   0.83399900  0.91457100  0.09684514
   0.83501103  0.92160995  0.38619458
Direct configuration=     9
   0.00350350  0.00151926  0.28933910
   0.50287142  0.00400359  0.29079457
   0.75332939 -0.00027355  0.29197712
   0.25068503  0.24542647  0.28915749
   0.08873200  0.16149400  0.09503655
   0.08139160  0.17010530  0.38573276
   0.32962600  0.16609800  0.09949802
   0.33310242  0.16197325  0.38509740
   0.16766300  0.08094400  0.19172241
   0.58333000  0.16550300  0.09887366
   0.59351169  0.17400238  0.38842371
   0.42207800  0.08742500  0.19156116
   0.82651500  0.16651000  0.09770193
   0.83460296  0.17006733  0.38686559
   0.66737600  0.08327700  0.19362076
  -0.00850276  0.48928672  0.29308760
   0.24617743  0.49303322  0.28955028
   0.49721687  0.49592287  0.29069901
   0.33859900  0.41583700  0.09384100
   0.33349428  0.41626911  0.38890339
   0.74539354  0.49079209  0.29280849
   0.58633600  0.42229400  0.09867290
   0.58220391  0.41904476  0.39027698
   0.42032800  0.32671800  0.19226484
   0.82677100  0.41676200  0.09643693
   0.83103836  0.41605316  0.39348381
   0.66249300  0.33542400  0.19079821
   0.00784463  0.74963928  0.29298171
   0.24871525  0.75060174  0.29161498
   0.08604600  0.67086900  0.09664380
   0.08668989  0.66591902  0.39311063
   0.49370150  0.74821690  0.29018248
   0.33005900  0.66135600  0.09463213
   0.33538995  0.66928339  0.38865339
   0.16407000  0.58904200  0.19558362
   0.75363417  0.74599558  0.29461652
   0.58008200  0.66096300  0.09597033
   0.58190511  0.67165188  0.39024259
   0.83213700  0.66199500  0.09747502
   0.83842968  0.66637012  0.39029792
   0.67214400  0.58529400  0.19313760
   0.91907500  0.58733100  0.19487907
   0.08603600  0.91635500  0.09815022
   0.08318654  0.91578913  0.38668445
   0.32743000  0.91932200  0.09737653
   0.33738591  0.91362874  0.38851029
   0.16274300  0.83153600  0.19150654
   0.66878300  0.83083000  0.19650084
   0.91852300  0.82706000  0.19503131
   0.25446308  0.00103288  0.28877486
  -0.00264782  0.24708183  0.28701510
   0.50338041  0.24802001  0.29078042
   0.74970044  0.24838695  0.28948440
   0.91424100  0.07929400  0.19382007
   0.08260800  0.41708000  0.09669464
   0.08383885  0.41678438  0.38393990
   0.17077300  0.33437100  0.19389387
   0.91567000  0.33646400  0.19341477
   0.41923600  0.58471500  0.19420852
   0.58190700  0.91526900  0.09685385
   0.58901131  0.92145230  0.38536325
   0.41467000  0.83428900  0.19444763
   0.83399900  0.91457100  0.09684514
   0.83502692  0.92102274  0.38726462
Direct configuration=    10
   0.00363422  0.00035267  0.28934080
   0.50115076  0.00348385  0.29087944
   0.75333244 -0.00137251  0.29193015
   0.25038080  0.24510640  0.28938736
   0.08873200  0.16149400  0.09503655
   0.08264368  0.17051265  0.38602709
   0.32962600  0.16609800  0.09949802
   0.33321089  0.16175131  0.38555942
   0.16766300  0.08094400  0.19172241
   0.58333000  0.16550300  0.09887366
   0.59260830  0.17328946  0.38883862
   0.42207800  0.08742500  0.19156116
   0.82651500  0.16651000  0.09770193
   0.83481689  0.17046339  0.38697578
   0.66737600  0.08327700  0.19362076
  -0.00756427  0.49168792  0.29304599
   0.24692350  0.49456232  0.28969966
   0.49857444  0.49725788  0.29070781
   0.33859900  0.41583700  0.09384100
   0.33310235  0.41637423  0.38979264
   0.74493239  0.49156774  0.29330960
   0.58633600  0.42229400  0.09867290
   0.58204783  0.41966264  0.39095569
   0.42032800  0.32671800  0.19226484
   0.82677100  0.41676200  0.09643693
   0.83225456  0.41644301  0.39461396
   0.66249300  0.33542400  0.19079821
   0.00682310  0.74938347  0.29328640
   0.24899199  0.74964193  0.29208912
   0.08604600  0.67086900  0.09664380
   0.08700945  0.66590612  0.39409507
   0.49468155  0.74725628  0.29025638
   0.33005900  0.66135600  0.09463213
   0.33511696  0.66830569  0.38925226
   0.16407000  0.58904200  0.19558362
   0.75260356  0.74531699  0.29443609
   0.58008200  0.66096300  0.09597033
   0.58267843  0.67256436  0.39092114
   0.83213700  0.66199500  0.09747502
   0.83772468  0.66596716  0.39119622
   0.67214400  0.58529400  0.19313760
   0.91907500  0.58733100  0.19487907
   0.08603600  0.91635500  0.09815022
   0.08383343  0.91576432  0.38706242
   0.32743000  0.91932200  0.09737653
   0.33780663  0.91451479  0.38892432
   0.16274300  0.83153600  0.19150654
   0.66878300  0.83083000  0.19650084
   0.91852300  0.82706000  0.19503131
   0.25471279  0.00041526  0.28903387
  -0.00249592  0.24608392  0.28779874
   0.50288693  0.24800047  0.29117951
   0.74947158  0.24761876  0.28997112
   0.91424100  0.07929400  0.19382007
   0.08260800  0.41708000  0.09669464
   0.08411681  0.41702134  0.38497369
   0.17077300  0.33437100  0.19389387
   0.91567000  0.33646400  0.19341477
   0.41923600  0.58471500  0.19420852
   0.58190700  0.91526900  0.09685385
   0.58921497  0.92183470  0.38650256
   0.41467000  0.83428900  0.19444763
   0.83399900  0.91457100  0.09684514
   0.83503885  0.92058210  0.38806755
Direct configuration=    11
   0.00328763 -0.00027336  0.28928775
   0.50126739  0.00284262  0.29093297
   0.75254470 -0.00221062  0.29239883
   0.25096558  0.24538763  0.28922487
   0.08873200  0.16149400  0.09503655
   0.08336459  0.16971402  0.38608800
   0.32962600  0.16609800  0.09949802
   0.33361895  0.16224357  0.38579168
   0.16766300  0.08094400  0.19172241
   0.58333000  0.16550300  0.09887366
   0.59177592  0.17313959  0.38864253
   0.42207800  0.08742500  0.19156116
   0.82651500  0.16651000  0.09770193
   0.83473527  0.16972847  0.38656094
   0.66737600  0.08327700  0.19362076
  -0.00776648  0.49132421  0.29337563
   0.24704162  0.49469676  0.28992483
   0.49813477  0.49697233  0.29061406
   0.33859900  0.41583700  0.09384100
   0.33349350  0.41678472  0.38997607
   0.74520415  0.49128448  0.29365524
   0.58633600  0.42229400  0.09867290
   0.58202034  0.42004060  0.39114281
   0.42032800  0.32671800  0.19226484
   0.82677100  0.41676200  0.09643693
   0.83307544  0.41694584  0.39483269
   0.66249300  0.33542400  0.19079821
   0.00601206  0.74906836  0.29362856
   0.24922952  0.74949449  0.29236528
   0.08604600  0.67086900  0.09664380
   0.08749346  0.66686703  0.39453396
   0.49623296  0.74814930  0.29069692
   0.33005900  0.66135600  0.09463213
   0.33583086  0.66846033  0.38969275
   0.16407000  0.58904200  0.19558362
   0.75260465  0.74576587  0.29462941
   0.58008200  0.66096300  0.09597033
   0.58343364  0.67317399  0.39122303
   0.83213700  0.66199500  0.09747502
   0.83711907  0.66578460  0.39178586
   0.67214400  0.58529400  0.19313760
   0.91907500  0.58733100  0.19487907
   0.08603600  0.91635500  0.09815022
   0.08443394  0.91512563  0.38728982
   0.32743000  0.91932200  0.09737653
   0.33770925  0.91458526  0.38913167
   0.16274300  0.83153600  0.19150654
   0.66878300  0.83083000  0.19650084
   0.91852300  0.82706000  0.19503131
   0.25462904  0.00035412  0.28880930
  -0.00219907  0.24658441  0.28851302
   0.50214703  0.24788333  0.29134506
   0.74972339  0.24791065  0.29022947
   0.91424100  0.07929400  0.19382007
   0.08260800  0.41708000  0.09669464
   0.08406113  0.41705677  0.38517018
   0.17077300  0.33437100  0.19389387
   0.91567000  0.33646400  0.19341477
   0.41923600  0.58471500  0.19420852
   0.58190700  0.91526900  0.09685385
   0.58875747  0.92157941  0.38691318
   0.41467000  0.83428900  0.19444763
   0.83399900  0.91457100  0.09684514
   0.83567610  0.92036735  0.38813197
Direct configuration=    12
   0.00303106 -0.00073679  0.28924847
   0.50135373  0.00236793  0.29097259
   0.75196155 -0.00283104  0.29274578
   0.25139848  0.24559581  0.28910458
   0.08873200  0.16149400  0.09503655
   0.08389826  0.16912282  0.38613309
   0.32962600  0.16609800  0.09949802
   0.33392103  0.16260798  0.38596362
   0.16766300  0.08094400  0.19172241
   0.58333000  0.16550300  0.09887366
   0.59115973  0.17302865  0.38849737
   0.42207800  0.08742500  0.19156116
   0.82651500  0.16651000  0.09770193
   0.83467485  0.16918443  0.38625384
   0.66737600  0.08327700  0.19362076
  -0.00791618  0.49105498  0.29361966
   0.24712907  0.49479629  0.29009152
   0.49780929  0.49676094  0.29054465
   0.33859900  0.41583700  0.09384100
   0.33378306  0.41708859  0.39011185
   0.74540532  0.49107478  0.29391111
   0.58633600  0.42229400  0.09867290
   0.58199999  0.42032039  0.39128133
   0.42032800  0.32671800  0.19226484
   0.82677100  0.41676200  0.09643693
   0.83368312  0.41731807  0.39499460
   0.66249300  0.33542400  0.19079821
   0.00541166  0.74883509  0.29388185
   0.24940536  0.74938535  0.29256972
   0.08604600  0.67086900  0.09664380
   0.08785176  0.66757836  0.39485885
   0.49738144  0.74881038  0.29102305
   0.33005900  0.66135600  0.09463213
   0.33635935  0.66857480  0.39001882
   0.16407000  0.58904200  0.19558362
   0.75260545  0.74609817  0.29477252
   0.58008200  0.66096300  0.09597033
   0.58399270  0.67362527  0.39144650
   0.83213700  0.66199500  0.09747502
   0.83667075  0.66564946  0.39222236
   0.67214400  0.58529400  0.19313760
   0.91907500  0.58733100  0.19487907
   0.08603600  0.91635500  0.09815022
   0.08487849  0.91465283  0.38745816
   0.32743000  0.91932200  0.09737653
   0.33763717  0.91463743  0.38928517
   0.16274300  0.83153600  0.19150654
   0.66878300  0.83083000  0.19650084
   0.91852300  0.82706000  0.19503131
   0.25456705  0.00030886  0.28864305
  -0.00197933  0.24695492  0.28904179
   0.50159930  0.24779660  0.29146761
   0.74990981  0.24812673  0.29042072
   0.91424100  0.07929400  0.19382007
   0.08260800  0.41708000  0.09669464
   0.08401990  0.41708299  0.38531563
   0.17077300  0.33437100  0.19389387
   0.91567000  0.33646400  0.19341477
   0.41923600  0.58471500  0.19420852
   0.58190700  0.91526900  0.09685385
   0.58841880  0.92139043  0.38721716
   0.41467000  0.83428900  0.19444763
   0.83399900  0.91457100  0.09684514
   0.83614785  0.92020837  0.38817966
Direct configuration=    13
   0.00317167 -0.00015734  0.28928632
   0.50188641  0.00249055  0.29098817
   0.75229408 -0.00216907  0.29274859
   0.25105814  0.24538138  0.28900454
   0.08873200  0.16149400  0.09503655
   0.08432569  0.16843246  0.38604811