 108 108   1   0
  0.1113753E+02  0.7520081E-09  0.1202168E-08  0.1418000E-08  0.5000000E-15
  1.000000000000000E-004
  CAR 
 SQS-NiFe                                
     23.15915598     -2.49722420  301      8.41337524      1.00000000
     -2.497  0.0000E+00  0.0000E+00  0.0000E+00  0.0000E+00
     -2.412  0.0000E+00  0.0000E+00  0.0000E+00  0.0000E+00
     -2.326  0.0000E+00  0.0000E+00  0.0000E+00  0.0000E+00
     -2.241  0.0000E+00  0.0000E+00  0.0000E+00  0.0000E+00
     -2.155 -0.3301E-31  0.0000E+00 -0.2823E-32  0.0000E+00
     -2.070 -0.3123E-28 -0.1451E-29 -0.2674E-29 -0.1241E-30
     -1.984 -0.2045E-25 -0.1123E-26 -0.1752E-26 -0.9614E-28
     -1.899 -0.9258E-23 -0.6011E-24 -0.7935E-24 -0.5151E-25
     -1.813 -0.2896E-20 -0.2225E-21 -0.2484E-21 -0.1908E-22
     -1.728 -0.6254E-18 -0.5686E-19 -0.5373E-19 -0.4881E-20
     -1.642 -0.9044E-16 -0.9483E-17 -0.7788E-17 -0.8159E-18
     -1.556 -0.9232E-14 -0.1181E-14 -0.7973E-15 -0.1018E-15
     -1.471 -0.6481E-12 -0.9828E-13 -0.5623E-13 -0.8507E-14
     -1.385 -0.3120E-10 -0.5618E-11 -0.2724E-11 -0.4890E-12
     -1.300 -0.1026E-08 -0.2198E-09 -0.9045E-10 -0.1929E-10
     -1.214 -0.2293E-07 -0.5860E-08 -0.2051E-08 -0.5205E-09
     -1.129 -0.3455E-06 -0.1058E-06 -0.3160E-07 -0.9568E-08
     -1.043 -0.3466E-05 -0.1280E-05 -0.3281E-06 -0.1190E-06
     -0.958 -0.2262E-04 -0.1020E-04 -0.2262E-05 -0.9914E-06
     -0.872 -0.9142E-04 -0.5177E-04 -0.1008E-04 -0.5419E-05
     -0.787 -0.2002E-03 -0.1546E-03 -0.2720E-04 -0.1864E-04
     -0.701 -0.9072E-04 -0.2004E-03 -0.3496E-04 -0.3578E-04
     -0.616  0.6700E-03  0.2274E-03  0.2234E-04 -0.1633E-04
     -0.530  0.1950E-02  0.1360E-02  0.1891E-03  0.9995E-04
     -0.445  0.3324E-02  0.2713E-02  0.4734E-03  0.3320E-03
     -0.359  0.5935E-02  0.4485E-02  0.9810E-03  0.7155E-03
     -0.274  0.1156E-01  0.8541E-02  0.1970E-02  0.1446E-02
     -0.188  0.1963E-01  0.1572E-01  0.3648E-02  0.2791E-02
     -0.103  0.2824E-01  0.2448E-01  0.6064E-02  0.4884E-02
     -0.017  0.3480E-01  0.3234E-01  0.9040E-02  0.7649E-02
      0.068  0.3484E-01  0.3542E-01  0.1202E-01  0.1068E-01
      0.154  0.2799E-01  0.3106E-01  0.1441E-01  0.1333E-01
      0.239  0.2247E-01  0.2412E-01  0.1633E-01  0.1540E-01
      0.325  0.2542E-01  0.2313E-01  0.1851E-01  0.1738E-01
      0.410  0.3350E-01  0.2940E-01  0.2137E-01  0.1989E-01
      0.496  0.3843E-01  0.3613E-01  0.2466E-01  0.2298E-01
      0.582  0.3839E-01  0.3790E-01  0.2794E-01  0.2622E-01
      0.667  0.4052E-01  0.3796E-01  0.3141E-01  0.2947E-01
      0.753  0.4949E-01  0.4383E-01  0.3564E-01  0.3322E-01
      0.838  0.5734E-01  0.5404E-01  0.4054E-01  0.3784E-01
      0.924  0.5365E-01  0.5695E-01  0.4513E-01  0.4271E-01
      1.009  0.4306E-01  0.4783E-01  0.4882E-01  0.4680E-01
      1.095  0.4171E-01  0.3869E-01  0.5238E-01  0.5011E-01
      1.180  0.5633E-01  0.4394E-01  0.5720E-01  0.5387E-01
      1.266  0.7719E-01  0.6266E-01  0.6380E-01  0.5922E-01
      1.351  0.8864E-01  0.8162E-01  0.7138E-01  0.6620E-01
      1.437  0.7968E-01  0.8658E-01  0.7820E-01  0.7361E-01
      1.522  0.5490E-01  0.7132E-01  0.8289E-01  0.7971E-01
      1.608  0.3403E-01  0.4580E-01  0.8580E-01  0.8363E-01
      1.693  0.3330E-01  0.2935E-01  0.8865E-01  0.8614E-01
      1.779  0.5286E-01  0.3309E-01  0.9317E-01  0.8897E-01
      1.864  0.7821E-01  0.5412E-01  0.9986E-01  0.9359E-01
      1.950  0.9081E-01  0.7827E-01  0.1076E+00  0.1003E+00
      2.035  0.8722E-01  0.8857E-01  0.1151E+00  0.1079E+00
      2.121  0.8201E-01  0.8262E-01  0.1221E+00  0.1149E+00
      2.206  0.8712E-01  0.7494E-01  0.1295E+00  0.1213E+00
      2.292  0.1005E+00  0.7743E-01  0.1381E+00  0.1280E+00
      2.377  0.1111E+00  0.8888E-01  0.1476E+00  0.1356E+00
      2.463  0.1099E+00  0.1006E+00  0.1570E+00  0.1442E+00
      2.549  0.1053E+00  0.1030E+00  0.1660E+00  0.1530E+00
      2.634  0.1160E+00  0.9484E-01  0.1760E+00  0.1611E+00
      2.720  0.1374E+00  0.8988E-01  0.1877E+00  0.1688E+00
      2.805  0.1410E+00  0.1021E+00  0.1998E+00  0.1775E+00
      2.891  0.1201E+00  0.1229E+00  0.2101E+00  0.1880E+00
      2.976  0.1029E+00  0.1274E+00  0.2189E+00  0.1989E+00
      3.062  0.1121E+00  0.1111E+00  0.2284E+00  0.2084E+00
      3.147  0.1444E+00  0.9540E-01  0.2408E+00  0.2166E+00
      3.233  0.1912E+00  0.9107E-01  0.2571E+00  0.2244E+00
      3.318  0.2538E+00  0.9062E-01  0.2789E+00  0.2321E+00
      3.404  0.3384E+00  0.9679E-01  0.3078E+00  0.2404E+00
      3.489  0.4349E+00  0.1190E+00  0.3450E+00  0.2506E+00
      3.575  0.5126E+00  0.1508E+00  0.3888E+00  0.2635E+00
      3.660  0.5507E+00  0.1805E+00  0.4359E+00  0.2789E+00
      3.746  0.5631E+00  0.2047E+00  0.4841E+00  0.2964E+00
      3.831  0.5829E+00  0.2183E+00  0.5339E+00  0.3151E+00
      3.917  0.6230E+00  0.2238E+00  0.5872E+00  0.3342E+00
      4.002  0.6709E+00  0.2388E+00  0.6446E+00  0.3546E+00
      4.088  0.7225E+00  0.2633E+00  0.7064E+00  0.3772E+00
      4.173  0.7890E+00  0.2831E+00  0.7739E+00  0.4014E+00
      4.259  0.8724E+00  0.3179E+00  0.8485E+00  0.4286E+00
      4.344  0.9565E+00  0.3956E+00  0.9303E+00  0.4624E+00
      4.430  0.1014E+01  0.4854E+00  0.1017E+01  0.5039E+00
      4.516  0.1018E+01  0.5359E+00  0.1104E+01  0.5497E+00
      4.601  0.9767E+00  0.5477E+00  0.1188E+01  0.5966E+00
      4.687  0.9338E+00  0.5472E+00  0.1267E+01  0.6434E+00
      4.772  0.9330E+00  0.5418E+00  0.1347E+01  0.6897E+00
      4.858  0.9609E+00  0.5378E+00  0.1429E+01  0.7357E+00
      4.943  0.9623E+00  0.5602E+00  0.1512E+01  0.7836E+00
      5.029  0.9215E+00  0.6273E+00  0.1591E+01  0.8372E+00
      5.114  0.8939E+00  0.7245E+00  0.1667E+01  0.8992E+00
      5.200  0.9307E+00  0.8245E+00  0.1747E+01  0.9697E+00
      5.285  0.1011E+01  0.9139E+00  0.1833E+01  0.1048E+01
      5.371  0.1083E+01  0.9712E+00  0.1926E+01  0.1131E+01
      5.456  0.1142E+01  0.9695E+00  0.2023E+01  0.1214E+01
      5.542  0.1208E+01  0.9289E+00  0.2127E+01  0.1293E+01
      5.627  0.1285E+01  0.9001E+00  0.2237E+01  0.1370E+01
      5.713  0.1375E+01  0.8906E+00  0.2354E+01  0.1446E+01
      5.798  0.1489E+01  0.8706E+00  0.2481E+01  0.1521E+01
      5.884  0.1602E+01  0.8410E+00  0.2618E+01  0.1593E+01
      5.969  0.1674E+01  0.8434E+00  0.2762E+01  0.1665E+01
      6.055  0.1710E+01  0.8979E+00  0.2908E+01  0.1742E+01
      6.140  0.1710E+01  0.9760E+00  0.3054E+01  0.1825E+01
      6.226  0.1626E+01  0.1047E+01  0.3193E+01  0.1915E+01
      6.311  0.1460E+01  0.1107E+01  0.3318E+01  0.2009E+01
      6.397  0.1298E+01  0.1158E+01  0.3429E+01  0.2108E+01
      6.483  0.1208E+01  0.1197E+01  0.3532E+01  0.2211E+01
      6.568  0.1186E+01  0.1232E+01  0.3634E+01  0.2316E+01
      6.654  0.1217E+01  0.1279E+01  0.3738E+01  0.2426E+01
      6.739  0.1295E+01  0.1329E+01  0.3849E+01  0.2539E+01
      6.825  0.1378E+01  0.1363E+01  0.3967E+01  0.2656E+01
      6.910  0.1424E+01  0.1388E+01  0.4088E+01  0.2774E+01
      6.996  0.1437E+01  0.1419E+01  0.4211E+01  0.2896E+01
      7.081  0.1424E+01  0.1440E+01  0.4333E+01  0.3019E+01
      7.167  0.1386E+01  0.1419E+01  0.4452E+01  0.3140E+01
      7.252  0.1340E+01  0.1356E+01  0.4566E+01  0.3256E+01
      7.338  0.1323E+01  0.1279E+01  0.4679E+01  0.3366E+01
      7.423  0.1374E+01  0.1215E+01  0.4797E+01  0.3470E+01
      7.509  0.1546E+01  0.1182E+01  0.4929E+01  0.3571E+01
      7.594  0.1842E+01  0.1178E+01  0.5087E+01  0.3671E+01
      7.680  0.2119E+01  0.1181E+01  0.5268E+01  0.3772E+01
      7.765  0.2118E+01  0.1168E+01  0.5449E+01  0.3872E+01
      7.851  0.1701E+01  0.1140E+01  0.5594E+01  0.3970E+01
      7.936  0.1047E+01  0.1108E+01  0.5684E+01  0.4065E+01
      8.022  0.5060E+00  0.1075E+01  0.5727E+01  0.4156E+01
      8.107  0.2532E+00  0.1039E+01  0.5749E+01  0.4245E+01
      8.193  0.2050E+00  0.1007E+01  0.5766E+01  0.4331E+01
      8.278  0.2087E+00  0.9929E+00  0.5784E+01  0.4416E+01
      8.364  0.2002E+00  0.1006E+01  0.5801E+01  0.4502E+01
      8.449  0.1847E+00  0.1030E+01  0.5817E+01  0.4591E+01
      8.535  0.1710E+00  0.1040E+01  0.5832E+01  0.4679E+01
      8.621  0.1593E+00  0.1021E+01  0.5845E+01  0.4767E+01
      8.706  0.1487E+00  0.9770E+00  0.5858E+01  0.4850E+01
      8.792  0.1369E+00  0.9186E+00  0.5870E+01  0.4929E+01
      8.877  0.1262E+00  0.8594E+00  0.5881E+01  0.5002E+01
      8.963  0.1263E+00  0.8104E+00  0.5891E+01  0.5072E+01
      9.048  0.1367E+00  0.7798E+00  0.5903E+01  0.5138E+01
      9.134  0.1450E+00  0.7712E+00  0.5915E+01  0.5204E+01
      9.219  0.1526E+00  0.7813E+00  0.5929E+01  0.5271E+01
      9.305  0.1697E+00  0.8019E+00  0.5943E+01  0.5340E+01
      9.390  0.1856E+00  0.8212E+00  0.5959E+01  0.5410E+01
      9.476  0.1825E+00  0.8274E+00  0.5975E+01  0.5481E+01
      9.561  0.1671E+00  0.8132E+00  0.5989E+01  0.5550E+01
      9.647  0.1588E+00  0.7771E+00  0.6002E+01  0.5617E+01
      9.732  0.1651E+00  0.7174E+00  0.6016E+01  0.5678E+01
      9.818  0.1791E+00  0.6345E+00  0.6032E+01  0.5732E+01
      9.903  0.1848E+00  0.5392E+00  0.6048E+01  0.5778E+01
      9.989  0.1721E+00  0.4474E+00  0.6062E+01  0.5817E+01
     10.074  0.1496E+00  0.3683E+00  0.6075E+01  0.5848E+01
     10.160  0.1327E+00  0.3076E+00  0.6086E+01  0.5875E+01
     10.245  0.1267E+00  0.2722E+00  0.6097E+01  0.5898E+01
     10.331  0.1282E+00  0.2621E+00  0.6108E+01  0.5920E+01
     10.416  0.1332E+00  0.2629E+00  0.6120E+01  0.5943E+01
     10.502  0.1387E+00  0.2588E+00  0.6132E+01  0.5965E+01
     10.588  0.1431E+00  0.2455E+00  0.6144E+01  0.5986E+01
     10.673  0.1463E+00  0.2291E+00  0.6156E+01  0.6005E+01
     10.759  0.1432E+00  0.2187E+00  0.6169E+01  0.6024E+01
     10.844  0.1269E+00  0.2173E+00  0.6179E+01  0.6043E+01
     10.930  0.1052E+00  0.2147E+00  0.6188E+01  0.6061E+01
     11.015  0.1001E+00  0.1986E+00  0.6197E+01  0.6078E+01
     11.101  0.1187E+00  0.1735E+00  0.6207E+01  0.6093E+01
     11.186  0.1422E+00  0.1577E+00  0.6219E+01  0.6106E+01
     11.272  0.1531E+00  0.1614E+00  0.6232E+01  0.6120E+01
     11.357  0.1509E+00  0.1726E+00  0.6245E+01  0.6135E+01
     11.443  0.1385E+00  0.1729E+00  0.6257E+01  0.6150E+01
     11.528  0.1185E+00  0.1632E+00  0.6267E+01  0.6164E+01
     11.614  0.1005E+00  0.1569E+00  0.6276E+01  0.6177E+01
     11.699  0.9730E-01  0.1546E+00  0.6284E+01  0.6190E+01
     11.785  0.1122E+00  0.1517E+00  0.6294E+01  0.6203E+01
     11.870  0.1332E+00  0.1555E+00  0.6305E+01  0.6217E+01
     11.956  0.1414E+00  0.1683E+00  0.6317E+01  0.6231E+01
     12.041  0.1318E+00  0.1736E+00  0.6328E+01  0.6246E+01
     12.127  0.1216E+00  0.1577E+00  0.6339E+01  0.6259E+01
     12.212  0.1244E+00  0.1282E+00  0.6350E+01  0.6270E+01
     12.298  0.1339E+00  0.1065E+00  0.6361E+01  0.6279E+01
     12.383  0.1395E+00  0.1069E+00  0.6373E+01  0.6289E+01
     12.469  0.1341E+00  0.1195E+00  0.6384E+01  0.6299E+01
     12.555  0.1159E+00  0.1265E+00  0.6394E+01  0.6310E+01
     12.640  0.9340E-01  0.1295E+00  0.6402E+01  0.6321E+01
     12.726  0.7557E-01  0.1389E+00  0.6409E+01  0.6333E+01
     12.811  0.6294E-01  0.1493E+00  0.6414E+01  0.6345E+01
     12.897  0.5926E-01  0.1503E+00  0.6419E+01  0.6358E+01
     12.982  0.7148E-01  0.1477E+00  0.6425E+01  0.6371E+01
     13.068  0.8699E-01  0.1489E+00  0.6433E+01  0.6384E+01
     13.153  0.8613E-01  0.1419E+00  0.6440E+01  0.6396E+01
     13.239  0.8017E-01  0.1133E+00  0.6447E+01  0.6405E+01
     13.324  0.9092E-01  0.7611E-01  0.6455E+01  0.6412E+01
     13.410  0.1071E+00  0.5607E-01  0.6464E+01  0.6417E+01
     13.495  0.1052E+00  0.6102E-01  0.6473E+01  0.6422E+01
     13.581  0.8585E-01  0.7671E-01  0.6480E+01  0.6428E+01
     13.666  0.6335E-01  0.8791E-01  0.6486E+01  0.6436E+01
     13.752  0.4363E-01  0.9454E-01  0.6489E+01  0.6444E+01
     13.837  0.2871E-01  0.1030E+00  0.6492E+01  0.6453E+01
     13.923  0.2757E-01  0.1100E+00  0.6494E+01  0.6462E+01
     14.008  0.4720E-01  0.1084E+00  0.6498E+01  0.6472E+01
     14.094  0.8040E-01  0.9601E-01  0.6505E+01  0.6480E+01
     14.179  0.1133E+00  0.7319E-01  0.6515E+01  0.6486E+01
     14.265  0.1380E+00  0.4687E-01  0.6527E+01  0.6490E+01
     14.350  0.1519E+00  0.3165E-01  0.6540E+01  0.6493E+01
     14.436  0.1544E+00  0.3435E-01  0.6553E+01  0.6496E+01
     14.522  0.1518E+00  0.4712E-01  0.6566E+01  0.6500E+01
     14.607  0.1563E+00  0.5821E-01  0.6579E+01  0.6505E+01
     14.693  0.1694E+00  0.6465E-01  0.6594E+01  0.6510E+01
     14.778  0.1806E+00  0.7500E-01  0.6609E+01  0.6517E+01
     14.864  0.1835E+00  0.9928E-01  0.6625E+01  0.6525E+01
     14.949  0.1770E+00  0.1330E+00  0.6640E+01  0.6536E+01
     15.035  0.1597E+00  0.1575E+00  0.6654E+01  0.6550E+01
     15.120  0.1383E+00  0.1658E+00  0.6665E+01  0.6564E+01
     15.206  0.1273E+00  0.1707E+00  0.6676E+01  0.6579E+01
     15.291  0.1357E+00  0.1813E+00  0.6688E+01  0.6594E+01
     15.377  0.1634E+00  0.1927E+00  0.6702E+01  0.6611E+01
     15.462  0.1952E+00  0.2008E+00  0.6719E+01  0.6628E+01
     15.548  0.2010E+00  0.2003E+00  0.6736E+01  0.6645E+01
     15.633  0.1715E+00  0.1818E+00  0.6750E+01  0.6661E+01
     15.719  0.1406E+00  0.1554E+00  0.6762E+01  0.6674E+01
     15.804  0.1417E+00  0.1479E+00  0.6775E+01  0.6686E+01
     15.890  0.1619E+00  0.1638E+00  0.6788E+01  0.6700E+01
     15.975  0.1711E+00  0.1802E+00  0.6803E+01  0.6716E+01
     16.061  0.1628E+00  0.1830E+00  0.6817E+01  0.6732E+01
     16.146  0.1425E+00  0.1768E+00  0.6829E+01  0.6747E+01
     16.232  0.1176E+00  0.1715E+00  0.6839E+01  0.6761E+01
     16.317  0.1009E+00  0.1725E+00  0.6848E+01  0.6776E+01
     16.403  0.9828E-01  0.1752E+00  0.6856E+01  0.6791E+01
     16.488  0.1017E+00  0.1688E+00  0.6865E+01  0.6806E+01
     16.574  0.1031E+00  0.1522E+00  0.6874E+01  0.6819E+01
     16.660  0.1065E+00  0.1338E+00  0.6883E+01  0.6830E+01
     16.745  0.1161E+00  0.1201E+00  0.6893E+01  0.6840E+01
     16.831  0.1244E+00  0.1123E+00  0.6903E+01  0.6850E+01
     16.916  0.1258E+00  0.1081E+00  0.6914E+01  0.6859E+01
     17.002  0.1304E+00  0.1060E+00  0.6925E+01  0.6868E+01
     17.087  0.1457E+00  0.1083E+00  0.6938E+01  0.6877E+01
     17.173  0.1599E+00  0.1179E+00  0.6951E+01  0.6888E+01
     17.258  0.1594E+00  0.1326E+00  0.6965E+01  0.6899E+01
     17.344  0.1497E+00  0.1446E+00  0.6978E+01  0.6911E+01
     17.429  0.1412E+00  0.1486E+00  0.6990E+01  0.6924E+01
     17.515  0.1322E+00  0.1476E+00  0.7001E+01  0.6937E+01
     17.600  0.1212E+00  0.1476E+00  0.7012E+01  0.6949E+01
     17.686  0.1129E+00  0.1534E+00  0.7021E+01  0.6962E+01
     17.771  0.1117E+00  0.1605E+00  0.7031E+01  0.6976E+01
     17.857  0.1191E+00  0.1514E+00  0.7041E+01  0.6989E+01
     17.942  0.1331E+00  0.1191E+00  0.7052E+01  0.6999E+01
     18.028  0.1503E+00  0.8600E-01  0.7065E+01  0.7006E+01
     18.113  0.1706E+00  0.8132E-01  0.7080E+01  0.7013E+01
     18.199  0.1896E+00  0.1070E+00  0.7096E+01  0.7023E+01
     18.284  0.1965E+00  0.1388E+00  0.7113E+01  0.7034E+01
     18.370  0.1873E+00  0.1597E+00  0.7129E+01  0.7048E+01
     18.455  0.1727E+00  0.1740E+00  0.7144E+01  0.7063E+01
     18.541  0.1715E+00  0.1857E+00  0.7158E+01  0.7079E+01
     18.627  0.1903E+00  0.1897E+00  0.7175E+01  0.7095E+01
     18.712  0.2166E+00  0.1871E+00  0.7193E+01  0.7111E+01
     18.798  0.2393E+00  0.1830E+00  0.7214E+01  0.7127E+01
     18.883  0.2551E+00  0.1814E+00  0.7235E+01  0.7142E+01
     18.969  0.2532E+00  0.1889E+00  0.7257E+01  0.7158E+01
     19.054  0.2239E+00  0.2055E+00  0.7276E+01  0.7176E+01
     19.140  0.1775E+00  0.2211E+00  0.7291E+01  0.7195E+01
     19.225  0.1430E+00  0.2334E+00  0.7304E+01  0.7215E+01
     19.311  0.1436E+00  0.2460E+00  0.7316E+01  0.7236E+01
     19.396  0.1714E+00  0.2476E+00  0.7331E+01  0.7257E+01
     19.482  0.1990E+00  0.2243E+00  0.7348E+01  0.7276E+01
     19.567  0.2125E+00  0.1883E+00  0.7366E+01  0.7292E+01
     19.653  0.2147E+00  0.1681E+00  0.7384E+01  0.7307E+01
     19.738  0.2066E+00  0.1737E+00  0.7402E+01  0.7322E+01
     19.824  0.1871E+00  0.1905E+00  0.7418E+01  0.7338E+01
     19.909  0.1677E+00  0.2042E+00  0.7432E+01  0.7355E+01
     19.995  0.1652E+00  0.2144E+00  0.7446E+01  0.7374E+01
     20.080  0.1786E+00  0.2179E+00  0.7462E+01  0.7392E+01
     20.166  0.1942E+00  0.2076E+00  0.7478E+01  0.7410E+01
     20.251  0.2056E+00  0.1905E+00  0.7496E+01  0.7426E+01
     20.337  0.2103E+00  0.1828E+00  0.7514E+01  0.7442E+01
     20.422  0.2014E+00  0.1871E+00  0.7531E+01  0.7458E+01
     20.508  0.1774E+00  0.1948E+00  0.7546E+01  0.7475E+01
     20.594  0.1440E+00  0.2031E+00  0.7558E+01  0.7492E+01
     20.679  0.1045E+00  0.2121E+00  0.7567E+01  0.7510E+01
     20.765  0.6333E-01  0.2133E+00  0.7573E+01  0.7528E+01
     20.850  0.2970E-01  0.1958E+00  0.7575E+01  0.7545E+01
     20.936  0.9010E-02  0.1581E+00  0.7576E+01  0.7559E+01
     21.021 -0.1237E-03  0.1088E+00  0.7576E+01  0.7568E+01
     21.107 -0.2050E-02  0.6143E-01  0.7576E+01  0.7573E+01
     21.192 -0.1264E-02  0.2667E-01  0.7576E+01  0.7576E+01
     21.278 -0.4263E-03  0.7032E-02  0.7576E+01  0.7576E+01
     21.363 -0.9085E-04 -0.8585E-03  0.7576E+01  0.7576E+01
     21.449 -0.1276E-04 -0.2098E-02  0.7576E+01  0.7576E+01
     21.534 -0.1206E-05 -0.1165E-02  0.7576E+01  0.7576E+01
     21.620 -0.7734E-07 -0.3726E-03  0.7576E+01  0.7576E+01
     21.705 -0.3392E-08 -0.7650E-04  0.7576E+01  0.7576E+01
     21.791 -0.1022E-09 -0.1043E-04  0.7576E+01  0.7576E+01
     21.876 -0.2118E-11 -0.9586E-06  0.7576E+01  0.7576E+01
     21.962 -0.3028E-13 -0.5991E-07  0.7576E+01  0.7576E+01
     22.047 -0.3016E-15 -0.2560E-08  0.7576E+01  0.7576E+01
     22.133  0.0000E+00 -0.7505E-10  0.7576E+01  0.7576E+01
     22.218  0.0000E+00 -0.1514E-11  0.7576E+01  0.7576E+01
     22.304  0.0000E+00 -0.2104E-13  0.7576E+01  0.7576E+01
     22.389  0.0000E+00 -0.2054E-15  0.7576E+01  0.7576E+01
     22.475  0.0000E+00  0.0000E+00  0.7576E+01  0.7576E+01
     22.561  0.0000E+00  0.0000E+00  0.7576E+01  0.7576E+01
     22.646  0.0000E+00  0.0000E+00  0.7576E+01  0.7576E+01
     22.732  0.0000E+00  0.0000E+00  0.7576E+01  0.7576E+01
     22.817  0.0000E+00  0.0000E+00  0.7576E+01  0.7576E+01
     22.903  0.0000E+00  0.0000E+00  0.7576E+01  0.7576E+01
     22.988  0.0000E+00  0.0000E+00  0.7576E+01  0.7576E+01
     23.074  0.0000E+00  0.0000E+00  0.7576E+01  0.7576E+01
     23.159  0.0000E+00  0.0000E+00  0.7576E+01  0.7576E+01
     23.15915598     -2.49722420  301      8.41337524      1.00000000
     -2.497  0.0000E+00  0.0000E+00  0.0000E+00  0.0000E+00  0.0000E+00  0.0000E+00
     -2.412  0.0000E+00  0.0000E+00  0.0000E+00  0.0000E+00  0.0000E+00  0.0000E+00
     -2.326  0.0000E+00  0.0000E+00  0.0000E+00  0.0000E+00  0.0000E+00  0.0000E+00
     -2.241  0.0000E+00  0.0000E+00  0.0000E+00  0.0000E+00  0.0000E+00  0.0000E+00
     -2.155 -0.2141E-31  0.0000E+00 -0.2110E-35  0.0000E+00 -0.7250E-36  0.0000E+00
     -2.070 -0.2026E-28 -0.9963E-30 -0.1996E-32 -0.2289E-33 -0.6860E-33 -0.9385E-35
     -1.984 -0.1327E-25 -0.7709E-27 -0.1307E-29 -0.1771E-30 -0.4492E-30 -0.7261E-32
     -1.899 -0.6006E-23 -0.4128E-24 -0.5918E-27 -0.9482E-28 -0.2034E-27 -0.3888E-29
     -1.813 -0.1879E-20 -0.1527E-21 -0.1851E-24 -0.3509E-25 -0.6361E-25 -0.1439E-26
     -1.728 -0.4057E-18 -0.3904E-19 -0.3998E-22 -0.8969E-23 -0.1374E-22 -0.3678E-24
     -1.642 -0.5867E-16 -0.6511E-17 -0.5785E-20 -0.1496E-20 -0.1987E-20 -0.6134E-22
     -1.556 -0.5989E-14 -0.8106E-15 -0.5912E-18 -0.1864E-18 -0.2028E-18 -0.7638E-20
     -1.471 -0.4205E-12 -0.6748E-13 -0.4162E-16 -0.1554E-16 -0.1424E-16 -0.6360E-18
     -1.385 -0.2024E-10 -0.3858E-11 -0.2018E-14 -0.8916E-15 -0.6858E-15 -0.3638E-16
     -1.300 -0.6655E-09 -0.1509E-09 -0.6758E-13 -0.3518E-13 -0.2258E-13 -0.1426E-14
     -1.214 -0.1487E-07 -0.4024E-08 -0.1583E-11 -0.9573E-12 -0.5062E-12 -0.3818E-13
     -1.129 -0.2242E-06 -0.7263E-07 -0.2681E-10 -0.1816E-10 -0.7694E-11 -0.6972E-12
     -1.043 -0.2249E-05 -0.8788E-06 -0.3522E-09 -0.2469E-09 -0.7900E-10 -0.8698E-11
     -0.958 -0.1468E-04 -0.7002E-05 -0.3918E-08 -0.2555E-08 -0.5507E-09 -0.7541E-10
     -0.872 -0.5937E-04 -0.3552E-04 -0.3776E-07 -0.2177E-07 -0.2703E-08 -0.4825E-09
     -0.787 -0.1302E-03 -0.1060E-03 -0.2919E-06 -0.1572E-06 -0.1047E-07 -0.2600E-08
     -0.701 -0.5993E-04 -0.1370E-03 -0.1638E-05 -0.9054E-06 -0.3755E-07 -0.1325E-07
     -0.616  0.4350E-03  0.1561E-03 -0.6159E-05 -0.3759E-05 -0.1218E-06 -0.5942E-07
     -0.530  0.1281E-02  0.9278E-03 -0.1400E-04 -0.1013E-04 -0.2840E-06 -0.1986E-06
     -0.445  0.2209E-02  0.1853E-02 -0.1234E-04 -0.1411E-04 -0.3403E-06 -0.4296E-06
     -0.359  0.3910E-02  0.3102E-02  0.3083E-04  0.7125E-05  0.2087E-06 -0.4456E-06
     -0.274  0.7422E-02  0.5937E-02  0.1487E-03  0.8748E-04  0.2202E-05  0.5934E-06
     -0.188  0.1238E-01  0.1080E-01  0.3586E-03  0.2541E-03  0.7799E-05  0.4372E-05
     -0.103  0.1772E-01  0.1665E-01  0.6562E-03  0.5157E-03  0.2023E-04  0.1345E-04
     -0.017  0.2175E-01  0.2199E-01  0.9511E-03  0.8231E-03  0.3713E-04  0.2769E-04
      0.068  0.2142E-01  0.2392E-01  0.1058E-02  0.1030E-02  0.4717E-04  0.3938E-04
      0.154  0.1666E-01  0.2038E-01  0.9507E-03  0.1022E-02  0.4643E-04  0.4086E-04
      0.239  0.1294E-01  0.1539E-01  0.9245E-03  0.9370E-03  0.5322E-04  0.4061E-04
      0.325  0.1466E-01  0.1522E-01  0.1249E-02  0.1077E-02  0.8846E-04  0.5829E-04
      0.410  0.1944E-01  0.1983E-01  0.1785E-02  0.1533E-02  0.1447E-03  0.9978E-04
      0.496  0.2211E-01  0.2392E-01  0.2155E-02  0.2032E-02  0.1930E-03  0.1466E-03
      0.582  0.2160E-01  0.2430E-01  0.2304E-02  0.2285E-02  0.2331E-03  0.1807E-03
      0.667  0.2211E-01  0.2313E-01  0.2700E-02  0.2495E-02  0.3153E-03  0.2258E-03
      0.753  0.2663E-01  0.2496E-01  0.3614E-02  0.3199E-02  0.4580E-03  0.3267E-03
      0.838  0.3119E-01  0.2996E-01  0.4379E-02  0.4267E-02  0.5731E-03  0.4565E-03
      0.924  0.2978E-01  0.3227E-01  0.4168E-02  0.4688E-02  0.5752E-03  0.5134E-03
      1.009  0.2394E-01  0.2855E-01  0.3432E-02  0.4016E-02  0.5552E-03  0.4707E-03
      1.095  0.2218E-01  0.2411E-01  0.3589E-02  0.3396E-02  0.7225E-03  0.4750E-03
      1.180  0.2907E-01  0.2589E-01  0.5218E-02  0.4263E-02  0.1144E-02  0.7004E-03
      1.266  0.4014E-01  0.3401E-01  0.7466E-02  0.6557E-02  0.1662E-02  0.1135E-02
      1.351  0.4660E-01  0.4300E-01  0.8844E-02  0.8890E-02  0.1992E-02  0.1584E-02
      1.437  0.4183E-01  0.4513E-01  0.8149E-02  0.9667E-02  0.1876E-02  0.1781E-02
      1.522  0.2829E-01  0.3599E-01  0.5715E-02  0.8179E-02  0.1405E-02  0.1554E-02
      1.608  0.1672E-01  0.2181E-01  0.3566E-02  0.5467E-02  0.1088E-02  0.1091E-02
      1.693  0.1525E-01  0.1364E-01  0.3624E-02  0.3634E-02  0.1404E-02  0.8679E-03
      1.779  0.2369E-01  0.1579E-01  0.6168E-02  0.4213E-02  0.2401E-02  0.1224E-02
      1.864  0.3560E-01  0.2562E-01  0.9542E-02  0.7191E-02  0.3589E-02  0.2131E-02
      1.950  0.4239E-01  0.3716E-01  0.1138E-01  0.1066E-01  0.4279E-02  0.3157E-02
      2.035  0.4133E-01  0.4294E-01  0.1115E-01  0.1217E-01  0.4447E-02  0.3733E-02
      2.121  0.3823E-01  0.4072E-01  0.1062E-01  0.1153E-01  0.4849E-02  0.3804E-02
      2.206  0.3879E-01  0.3650E-01  0.1133E-01  0.1075E-01  0.6038E-02  0.3976E-02
      2.292  0.4271E-01  0.3596E-01  0.1327E-01  0.1134E-01  0.7762E-02  0.4774E-02
      2.377  0.4571E-01  0.3877E-01  0.1506E-01  0.1330E-01  0.9111E-02  0.6162E-02
      2.463  0.4430E-01  0.4212E-01  0.1517E-01  0.1550E-01  0.9446E-02  0.7625E-02
      2.549  0.4143E-01  0.4325E-01  0.1445E-01  0.1610E-01  0.9957E-02  0.8381E-02
      2.634  0.4414E-01  0.4081E-01  0.1559E-01  0.1458E-01  0.1267E-01  0.8261E-02
      2.720  0.5110E-01  0.3907E-01  0.1833E-01  0.1338E-01  0.1664E-01  0.8605E-02
      2.805  0.5144E-01  0.4468E-01  0.1892E-01  0.1529E-01  0.1812E-01  0.1084E-01
      2.891  0.4198E-01  0.5408E-01  0.1624E-01  0.1903E-01  0.1621E-01  0.1396E-01
      2.976  0.3339E-01  0.5493E-01  0.1403E-01  0.2030E-01  0.1466E-01  0.1537E-01
      3.062  0.3412E-01  0.4541E-01  0.1529E-01  0.1809E-01  0.1713E-01  0.1460E-01
      3.147  0.4182E-01  0.3686E-01  0.1916E-01  0.1588E-01  0.2438E-01  0.1369E-01
      3.233  0.5108E-01  0.3417E-01  0.2358E-01  0.1540E-01  0.3646E-01  0.1355E-01
      3.318  0.5910E-01  0.3317E-01  0.2728E-01  0.1506E-01  0.5576E-01  0.1396E-01
      3.404  0.6606E-01  0.3461E-01  0.2976E-01  0.1510E-01  0.8560E-01  0.1691E-01
      3.489  0.7220E-01  0.4171E-01  0.3121E-01  0.1750E-01  0.1225E+00  0.2442E-01
      3.575  0.7470E-01  0.5130E-01  0.3172E-01  0.2205E-01  0.1545E+00  0.3482E-01
      3.660  0.7258E-01  0.5936E-01  0.3114E-01  0.2725E-01  0.1724E+00  0.4578E-01
      3.746  0.7020E-01  0.6553E-01  0.3004E-01  0.3217E-01  0.1796E+00  0.5606E-01
      3.831  0.7244E-01  0.6855E-01  0.3014E-01  0.3495E-01  0.1900E+00  0.6327E-01
      3.917  0.7881E-01  0.6791E-01  0.3201E-01  0.3444E-01  0.2111E+00  0.6999E-01
      4.002  0.8320E-01  0.6747E-01  0.3366E-01  0.3248E-01  0.2403E+00  0.8490E-01
      4.088  0.8076E-01  0.6831E-01  0.3390E-01  0.3024E-01  0.2775E+00  0.1070E+00
      4.173  0.7441E-01  0.6735E-01  0.3402E-01  0.2779E-01  0.3246E+00  0.1292E+00
      4.259  0.7033E-01  0.6686E-01  0.3496E-01  0.2812E-01  0.3796E+00  0.1633E+00
      4.344  0.6796E-01  0.7129E-01  0.3624E-01  0.3307E-01  0.4373E+00  0.2243E+00
      4.430  0.6121E-01  0.7709E-01  0.3731E-01  0.3888E-01  0.4884E+00  0.2907E+00
      4.516  0.4848E-01  0.7775E-01  0.3780E-01  0.4183E-01  0.5249E+00  0.3259E+00
      4.601  0.3453E-01  0.7311E-01  0.3763E-01  0.4225E-01  0.5595E+00  0.3313E+00
      4.687  0.2350E-01  0.6606E-01  0.3803E-01  0.4136E-01  0.6273E+00  0.3316E+00
      4.772  0.1571E-01  0.5779E-01  0.4079E-01  0.3976E-01  0.7398E+00  0.3333E+00
      4.858  0.1040E-01  0.4967E-01  0.4562E-01  0.3883E-01  0.8414E+00  0.3359E+00
      4.943  0.7453E-02  0.4360E-01  0.4975E-01  0.3967E-01  0.8594E+00  0.3627E+00
      5.029  0.6342E-02  0.3950E-01  0.5116E-01  0.4171E-01  0.7968E+00  0.4431E+00
      5.114  0.5883E-02  0.3530E-01  0.5168E-01  0.4350E-01  0.7286E+00  0.5722E+00
      5.200  0.5569E-02  0.2973E-01  0.5464E-01  0.4494E-01  0.7132E+00  0.7100E+00
      5.285  0.5832E-02  0.2371E-01  0.5971E-01  0.4831E-01  0.7455E+00  0.8084E+00
      5.371  0.7026E-02  0.1865E-01  0.6334E-01  0.5461E-01  0.7934E+00  0.8253E+00
      5.456  0.9059E-02  0.1453E-01  0.6427E-01  0.6077E-01  0.8420E+00  0.7583E+00
      5.542  0.1160E-01  0.1059E-01  0.6487E-01  0.6342E-01  0.8903E+00  0.6728E+00
      5.627  0.1406E-01  0.7120E-02  0.6836E-01  0.6199E-01  0.9382E+00  0.6400E+00
      5.713  0.1578E-01  0.4881E-02  0.7612E-01  0.5717E-01  0.9913E+00  0.6571E+00
      5.798  0.1652E-01  0.3805E-02  0.8524E-01  0.5065E-01  0.1052E+01  0.6710E+00
      5.884  0.1616E-01  0.3173E-02  0.8860E-01  0.4628E-01  0.1111E+01  0.6590E+00
      5.969  0.1455E-01  0.2689E-02  0.8149E-01  0.4780E-01  0.1178E+01  0.6517E+00
      6.055  0.1251E-01  0.2628E-02  0.6831E-01  0.5474E-01  0.1287E+01  0.6814E+00
      6.140  0.1127E-01  0.3200E-02  0.5735E-01  0.6253E-01  0.1420E+01  0.7420E+00
      6.226  0.1058E-01  0.4345E-02  0.5108E-01  0.6817E-01  0.1479E+01  0.8114E+00
      6.311  0.9624E-02  0.5955E-02  0.4748E-01  0.7289E-01  0.1406E+01  0.8854E+00
      6.397  0.8794E-02  0.7692E-02  0.4607E-01  0.7702E-01  0.1266E+01  0.9689E+00
      6.483  0.8602E-02  0.8920E-02  0.4680E-01  0.7818E-01  0.1140E+01  0.1055E+01
      6.568  0.8293E-02  0.9581E-02  0.4687E-01  0.7596E-01  0.1052E+01  0.1150E+01
      6.654  0.7271E-02  0.1054E-01  0.4346E-01  0.7272E-01  0.1028E+01  0.1271E+01
      6.739  0.6189E-02  0.1219E-01  0.3752E-01  0.6955E-01  0.1077E+01  0.1397E+01
      6.825  0.5715E-02  0.1364E-01  0.3159E-01  0.6569E-01  0.1156E+01  0.1471E+01
      6.910  0.5730E-02  0.1410E-01  0.2704E-01  0.6118E-01  0.1221E+01  0.1481E+01
      6.996  0.5888E-02  0.1354E-01  0.2444E-01  0.5765E-01  0.1275E+01  0.1463E+01
      7.081  0.6086E-02  0.1236E-01  0.2323E-01  0.5634E-01  0.1317E+01  0.1426E+01
      7.167  0.6261E-02  0.1132E-01  0.2213E-01  0.5696E-01  0.1331E+01  0.1346E+01
      7.252  0.6154E-02  0.1099E-01  0.2088E-01  0.5782E-01  0.1316E+01  0.1218E+01
      7.338  0.5733E-02  0.1096E-01  0.1972E-01  0.5650E-01  0.1305E+01  0.1074E+01
      7.423  0.5366E-02  0.1028E-01  0.1804E-01  0.5168E-01  0.1348E+01  0.9717E+00
      7.509  0.5311E-02  0.8832E-02  0.1544E-01  0.4449E-01  0.1523E+01  0.9550E+00
      7.594  0.5509E-02  0.7433E-02  0.1278E-01  0.3754E-01  0.1881E+01  0.1021E+01
      7.680  0.5790E-02  0.6766E-02  0.1100E-01  0.3291E-01  0.2282E+01  0.1123E+01
      7.765  0.6052E-02  0.6728E-02  0.9962E-02  0.3038E-01  0.2379E+01  0.1219E+01
      7.851  0.6507E-02  0.6830E-02  0.9338E-02  0.2785E-01  0.1947E+01  0.1275E+01
      7.936  0.7584E-02  0.6886E-02  0.1013E-01  0.2467E-01  0.1191E+01  0.1273E+01
      8.022  0.9430E-02  0.6997E-02  0.1402E-01  0.2260E-01  0.5426E+00  0.1239E+01
      8.107  0.1161E-01  0.7117E-02  0.2034E-01  0.2217E-01  0.2277E+00  0.1219E+01
      8.193  0.1333E-01  0.7150E-02  0.2524E-01  0.2149E-01  0.1570E+00  0.1230E+01
      8.278  0.1403E-01  0.7162E-02  0.2596E-01  0.1975E-01  0.1572E+00  0.1260E+01
      8.364  0.1378E-01  0.7172E-02  0.2417E-01  0.1816E-01  0.1503E+00  0.1282E+01
      8.449  0.1295E-01  0.7172E-02  0.2290E-01  0.1751E-01  0.1369E+00  0.1247E+01
      8.535  0.1183E-01  0.7266E-02  0.2262E-01  0.1760E-01  0.1249E+00  0.1142E+01
      8.621  0.1084E-01  0.7551E-02  0.2209E-01  0.1851E-01  0.1139E+00  0.9977E+00
      8.706  0.1038E-01  0.7990E-02  0.2085E-01  0.2028E-01  0.1033E+00  0.8566E+00
      8.792  0.1029E-01  0.8376E-02  0.1949E-01  0.2214E-01  0.9206E-01  0.7352E+00
      8.877  0.1041E-01  0.8413E-02  0.1928E-01  0.2317E-01  0.8125E-01  0.6298E+00
      8.963  0.1130E-01  0.8059E-02  0.2130E-01  0.2374E-01  0.7777E-01  0.5377E+00
      9.048  0.1291E-01  0.7791E-02  0.2434E-01  0.2486E-01  0.8283E-01  0.4660E+00
      9.134  0.1439E-01  0.8071E-02  0.2621E-01  0.2613E-01  0.8748E-01  0.4151E+00
      9.219  0.1597E-01  0.8685E-02  0.2812E-01  0.2621E-01  0.8991E-01  0.3754E+00