       N       E                     dE             d eps       ncg     rms          rms(c)
DAV:   1     0.948409728100E+04    0.94841E+04   -0.39827E+05 24000   0.197E+03
DAV:   2     0.808224881767E+03   -0.86759E+04   -0.80523E+04 24000   0.417E+02
DAV:   3    -0.628471437861E+03   -0.14367E+04   -0.11362E+04 24000   0.198E+02
DAV:   4    -0.741108915258E+03   -0.11264E+03   -0.10721E+03 25218   0.663E+01
DAV:   5    -0.742892640054E+03   -0.17837E+01   -0.17803E+01 26463   0.849E+00    0.137E+02
RMM:   6    -0.145354534395E+04   -0.71065E+03   -0.16897E+03 25005   0.845E+01    0.295E+02
RMM:   7    -0.700489269467E+03    0.75306E+03   -0.44142E+02 24000   0.434E+01    0.135E+02
RMM:   8    -0.936457858684E+03   -0.23597E+03   -0.34434E+02 24000   0.284E+01    0.213E+02
RMM:   9    -0.858186308030E+03    0.78272E+02   -0.87329E+01 24000   0.178E+01    0.179E+02
RMM:  10    -0.714935267970E+03    0.14325E+03   -0.70414E+01 24000   0.169E+01    0.116E+02
RMM:  11    -0.711740402191E+03    0.31949E+01   -0.79383E+01 24000   0.172E+01    0.134E+02
RMM:  12    -0.742424271064E+03   -0.30684E+02   -0.49876E+01 24000   0.137E+01    0.159E+02
RMM:  13    -0.665166640892E+03    0.77258E+02   -0.38317E+01 24000   0.123E+01    0.847E+01
RMM:  14    -0.651423715786E+03    0.13743E+02   -0.19068E+01 24000   0.845E+00    0.631E+01
RMM:  15    -0.659450763232E+03   -0.80270E+01   -0.15042E+01 24000   0.737E+00    0.692E+01
RMM:  16    -0.657680440352E+03    0.17703E+01   -0.12193E+01 24000   0.692E+00    0.534E+01
RMM:  17    -0.655919167944E+03    0.17613E+01   -0.57664E+00 24000   0.466E+00    0.399E+01
RMM:  18    -0.658664160617E+03   -0.27450E+01   -0.36506E+00 24000   0.348E+00    0.338E+01
RMM:  19    -0.662196650864E+03   -0.35325E+01   -0.38267E+00 24000   0.365E+00    0.313E+01
RMM:  20    -0.668501117923E+03   -0.63045E+01   -0.55955E+00 24000   0.442E+00    0.362E+01
RMM:  21    -0.667738418051E+03    0.76270E+00   -0.48053E+00 24000   0.417E+00    0.278E+01
RMM:  22    -0.670003241034E+03   -0.22648E+01   -0.41362E+00 24000   0.367E+00    0.309E+01
RMM:  23    -0.667587429878E+03    0.24158E+01   -0.22688E+00 24000   0.284E+00    0.140E+01
RMM:  24    -0.667836081737E+03   -0.24865E+00   -0.81283E-01 24000   0.169E+00    0.138E+01
RMM:  25    -0.667752514134E+03    0.83568E-01   -0.42916E-01 24000   0.126E+00    0.110E+01
RMM:  26    -0.668065416335E+03   -0.31290E+00   -0.48382E-01 24000   0.131E+00    0.131E+01
RMM:  27    -0.667847412069E+03    0.21800E+00   -0.39968E-01 24000   0.118E+00    0.941E+00
RMM:  28    -0.667643426048E+03    0.20399E+00   -0.21982E-01 24000   0.891E-01    0.589E+00
RMM:  29    -0.667710598058E+03   -0.67172E-01   -0.10957E-01 24000   0.622E-01    0.669E+00
RMM:  30    -0.667596282365E+03    0.11432E+00   -0.96556E-02 24000   0.601E-01    0.386E+00
RMM:  31    -0.667621318885E+03   -0.25037E-01   -0.65038E-02 24000   0.480E-01    0.454E+00
RMM:  32    -0.667562134643E+03    0.59184E-01   -0.44375E-02 24000   0.405E-01    0.234E+00
RMM:  33    -0.667554571417E+03    0.75632E-02   -0.13384E-02 24000   0.220E-01    0.188E+00
RMM:  34    -0.667548085571E+03    0.64858E-02   -0.71722E-03 24000   0.161E-01    0.142E+00
RMM:  35    -0.667545242334E+03    0.28432E-02   -0.29777E-03 24000   0.105E-01    0.105E+00
RMM:  36    -0.667545304261E+03   -0.61927E-04   -0.22617E-03 24000   0.872E-02    0.934E-01
RMM:  37    -0.667543787342E+03    0.15169E-02   -0.19369E-03 24000   0.837E-02    0.603E-01
RMM:  38    -0.667544695750E+03   -0.90841E-03   -0.14388E-03 24000   0.695E-02    0.664E-01
RMM:  39    -0.667543511139E+03    0.11846E-02   -0.11122E-03 24000   0.631E-02    0.309E-01
RMM:  40    -0.667543786020E+03   -0.27488E-03   -0.49423E-04 24000   0.414E-02    0.358E-01
RMM:  41    -0.667543491511E+03    0.29451E-03   -0.35120E-04 24000   0.358E-02    0.173E-01
RMM:  42    -0.667543538982E+03   -0.47472E-04   -0.12224E-04 23996   0.208E-02    0.172E-01
RMM:  43    -0.667543548234E+03   -0.92520E-05   -0.88516E-05 23958   0.177E-02
   1 F= -.66754355E+03 E0= -.66754010E+03  d E =-.667544E+03  mag=   122.6926
       N       E                     dE             d eps       ncg     rms          rms(c)
DAV:   1    -0.666518098574E+03    0.10254E+01   -0.40100E+02 24483   0.217E+01    0.157E+01
RMM:   2    -0.681659537769E+03   -0.15141E+02   -0.23265E+01 24000   0.102E+01    0.590E+01
RMM:   3    -0.670932568399E+03    0.10727E+02   -0.74057E+00 24000   0.525E+00    0.235E+01
RMM:   4    -0.671586919567E+03   -0.65435E+00   -0.19786E+00 24000   0.264E+00    0.255E+01
RMM:   5    -0.669647976729E+03    0.19389E+01   -0.93239E-01 24000   0.187E+00    0.137E+01
RMM:   6    -0.669056976962E+03    0.59100E+00   -0.32827E-01 24000   0.110E+00    0.399E+00
RMM:   7    -0.669083452130E+03   -0.26475E-01   -0.94218E-02 24000   0.574E-01    0.474E+00
RMM:   8    -0.669039044629E+03    0.44408E-01   -0.53414E-02 24000   0.447E-01    0.343E+00
RMM:   9    -0.669013876431E+03    0.25168E-01   -0.38847E-02 24000   0.372E-01    0.238E+00
RMM:  10    -0.669035497708E+03   -0.21621E-01   -0.32691E-02 24000   0.328E-01    0.351E+00
RMM:  11    -0.668993962847E+03    0.41535E-01   -0.19780E-02 24000   0.264E-01    0.153E+00
RMM:  12    -0.668991494729E+03    0.24681E-02   -0.94440E-03 24000   0.178E-01    0.130E+00
RMM:  13    -0.668992573329E+03   -0.10786E-02   -0.72727E-03 24000   0.159E-01    0.138E+00
RMM:  14    -0.668985681007E+03    0.68923E-02   -0.40881E-03 24000   0.122E-01    0.340E-01
RMM:  15    -0.668985944424E+03   -0.26342E-03   -0.86130E-04 24000   0.542E-02    0.388E-01
RMM:  16    -0.668985691088E+03    0.25334E-03   -0.40289E-04 24000   0.386E-02    0.231E-01
RMM:  17    -0.668985602640E+03    0.88448E-04   -0.19313E-04 24000   0.265E-02    0.143E-01
RMM:  18    -0.668985773450E+03   -0.17081E-03   -0.14571E-04 24000   0.224E-02    0.217E-01
RMM:  19    -0.668985634051E+03    0.13940E-03   -0.10086E-04 23946   0.193E-02    0.772E-02
RMM:  20    -0.668985646863E+03   -0.12813E-04   -0.34372E-05 19393   0.112E-02    0.835E-02
RMM:  21    -0.668985644281E+03    0.25824E-05   -0.19881E-05 14439   0.912E-03
   2 F= -.66898564E+03 E0= -.66897965E+03  d E =-.144210E+01  mag=   123.6746
       N       E                     dE             d eps       ncg     rms          rms(c)
DAV:   1    -0.668110773672E+03    0.87487E+00   -0.18566E+02 24438   0.146E+01    0.102E+01
RMM:   2    -0.673111539400E+03   -0.50008E+01   -0.75319E+00 24000   0.589E+00    0.329E+01
RMM:   3    -0.670162481031E+03    0.29491E+01   -0.27923E+00 24000   0.320E+00    0.161E+01
RMM:   4    -0.670627694040E+03   -0.46521E+00   -0.82600E-01 24000   0.171E+00    0.188E+01
RMM:   5    -0.669485257200E+03    0.11424E+01   -0.44863E-01 24000   0.130E+00    0.783E+00
RMM:   6    -0.669287887687E+03    0.19737E+00   -0.12160E-01 24000   0.668E-01    0.236E+00
RMM:   7    -0.669305956891E+03   -0.18069E-01   -0.36445E-02 24000   0.358E-01    0.331E+00
RMM:   8    -0.669276205010E+03    0.29752E-01   -0.22324E-02 24000   0.290E-01    0.200E+00
RMM:   9    -0.669267134991E+03    0.90700E-02   -0.13896E-02 24000   0.221E-01    0.136E+00
RMM:  10    -0.669279946882E+03   -0.12812E-01   -0.11759E-02 24000   0.196E-01    0.236E+00
RMM:  11    -0.669260886167E+03    0.19061E-01   -0.89123E-03 24000   0.175E-01    0.954E-01
RMM:  12    -0.669258974551E+03    0.19116E-02   -0.35052E-03 24000   0.109E-01    0.626E-01
RMM:  13    -0.669259666390E+03   -0.69184E-03   -0.20132E-03 24000   0.842E-02    0.734E-01
RMM:  14    -0.669257704564E+03    0.19618E-02   -0.10778E-03 24000   0.635E-02    0.180E-01
RMM:  15    -0.669257770689E+03   -0.66124E-04   -0.25691E-04 24000   0.297E-02    0.211E-01
RMM:  16    -0.669257708175E+03    0.62514E-04   -0.11982E-04 23859   0.210E-02    0.150E-01
RMM:  17    -0.669257640920E+03    0.67255E-04   -0.60830E-05 22280   0.151E-02    0.624E-02
RMM:  18    -0.669257685050E+03   -0.44130E-04   -0.39843E-05 20494   0.119E-02    0.111E-01
RMM:  19    -0.669257648896E+03    0.36154E-04   -0.28745E-05 17425   0.109E-02    0.396E-02
RMM:  20    -0.669257650417E+03   -0.15207E-05   -0.97251E-06 13546   0.610E-03
   3 F= -.66925765E+03 E0= -.66925048E+03  d E =-.171410E+01  mag=   124.1845
       N       E                     dE             d eps       ncg     rms          rms(c)
DAV:   1    -0.669243937266E+03    0.13712E-01   -0.54743E+01 24453   0.807E+00    0.360E+00
RMM:   2    -0.669775843771E+03   -0.53191E+00   -0.90539E-01 24000   0.213E+00    0.982E+00
RMM:   3    -0.669590147522E+03    0.18570E+00   -0.26938E-01 24000   0.977E-01    0.683E+00
RMM:   4    -0.669640669228E+03   -0.50522E-01   -0.12733E-01 24000   0.676E-01    0.743E+00
RMM:   5    -0.669453414993E+03    0.18725E+00   -0.63663E-02 24000   0.497E-01    0.238E+00
RMM:   6    -0.669434965590E+03    0.18449E-01   -0.12459E-02 24000   0.212E-01    0.879E-01
RMM:   7    -0.669437197054E+03   -0.22315E-02   -0.45008E-03 24000   0.125E-01    0.125E+00
RMM:   8    -0.669432986375E+03    0.42107E-02   -0.38828E-03 24000   0.114E-01    0.906E-01
RMM:   9    -0.669430885746E+03    0.21006E-02   -0.28111E-03 24000   0.974E-02    0.632E-01
RMM:  10    -0.669432844016E+03   -0.19583E-02   -0.29148E-03 24000   0.972E-02    0.958E-01
RMM:  11    -0.669429623427E+03    0.32206E-02   -0.20021E-03 24000   0.827E-02    0.330E-01
RMM:  12    -0.669429288338E+03    0.33509E-03   -0.39192E-04 24000   0.361E-02    0.155E-01
RMM:  13    -0.669429351325E+03   -0.62987E-04   -0.14456E-04 23991   0.226E-02    0.193E-01
RMM:  14    -0.669429211234E+03    0.14009E-03   -0.75849E-05 23091   0.171E-02    0.516E-02
RMM:  15    -0.669429212951E+03   -0.17164E-05   -0.17824E-05 14520   0.830E-03
   4 F= -.66942921E+03 E0= -.66942301E+03  d E =-.171563E+00  mag=   124.3152
       N       E                     dE             d eps       ncg     rms          rms(c)
DAV:   1    -0.669251310953E+03    0.17790E+00   -0.72677E+01 24369   0.931E+00    0.416E+00
RMM:   2    -0.669949199277E+03   -0.69789E+00   -0.12180E+00 24000   0.247E+00    0.112E+01
RMM:   3    -0.669713277353E+03    0.23592E+00   -0.36200E-01 24000   0.113E+00    0.783E+00
RMM:   4    -0.669774275139E+03   -0.60998E-01   -0.16664E-01 24000   0.774E-01    0.846E+00
RMM:   5    -0.669530473696E+03    0.24380E+00   -0.83426E-02 24000   0.568E-01    0.272E+00
RMM:   6    -0.669506579373E+03    0.23894E-01   -0.16620E-02 24000   0.245E-01    0.103E+00
RMM:   7    -0.669509880120E+03   -0.33007E-02   -0.61371E-03 24000   0.146E-01    0.149E+00
RMM:   8    -0.669503529475E+03    0.63506E-02   -0.50996E-03 24000   0.132E-01    0.992E-01
RMM:   9    -0.669501233493E+03    0.22960E-02   -0.35911E-03 24000   0.110E-01    0.747E-01
RMM:  10    -0.669503759889E+03   -0.25264E-02   -0.39443E-03 24000   0.113E-01    0.111E+00
RMM:  11    -0.669499360201E+03    0.43997E-02   -0.27399E-03 24000   0.967E-02    0.372E-01
RMM:  12    -0.669498956243E+03    0.40396E-03   -0.52990E-04 24000   0.419E-02    0.189E-01
RMM:  13    -0.669499033771E+03   -0.77528E-04   -0.20051E-04 24000   0.266E-02    0.226E-01
RMM:  14    -0.669498839156E+03    0.19461E-03   -0.10670E-04 23809   0.202E-02    0.585E-02
RMM:  15    -0.669498843879E+03   -0.47227E-05   -0.25781E-05 17261   0.984E-03
   5 F= -.66949884E+03 E0= -.66949365E+03  d E =-.241193E+00  mag=   124.4447
       N       E                     dE             d eps       ncg     rms          rms(c)
DAV:   1    -0.669494824533E+03    0.40146E-02   -0.14539E+01 24462   0.416E+00    0.153E+00
RMM:   2    -0.669608126672E+03   -0.11330E+00   -0.21288E-01 24000   0.104E+00    0.439E+00
RMM:   3    -0.669560626454E+03    0.47500E-01   -0.51815E-02 24000   0.424E-01    0.299E+00
RMM:   4    -0.669565192744E+03   -0.45663E-02   -0.27852E-02 24000   0.317E-01    0.295E+00
RMM:   5    -0.669538265901E+03    0.26927E-01   -0.11926E-02 24000   0.216E-01    0.132E+00
RMM:   6    -0.669532426273E+03    0.58396E-02   -0.29452E-03 24000   0.104E-01    0.375E-01
RMM:   7    -0.669532788872E+03   -0.36260E-03   -0.94155E-04 24000   0.572E-02    0.546E-01
RMM:   8    -0.669532573799E+03    0.21507E-03   -0.98140E-04 24000   0.558E-02    0.576E-01
RMM:   9    -0.669531388222E+03    0.11856E-02   -0.78941E-04 24000   0.512E-02    0.232E-01
RMM:  10    -0.669532015196E+03   -0.62697E-03   -0.66322E-04 24000   0.468E-02    0.471E-01
RMM:  11    -0.669531357865E+03    0.65733E-03   -0.39027E-04 24000   0.374E-02    0.211E-01
RMM:  12    -0.669531184583E+03    0.17328E-03   -0.11377E-04 23899   0.200E-02    0.494E-02
RMM:  13    -0.669531197639E+03   -0.13056E-04   -0.23536E-05 16418   0.941E-03    0.751E-02
RMM:  14    -0.669531178790E+03    0.18849E-04   -0.12472E-05 13742   0.788E-03    0.279E-02
RMM:  15    -0.669531177732E+03    0.10584E-05   -0.35965E-06 13056   0.382E-03
   6 F= -.66953118E+03 E0= -.66952614E+03  d E =-.323339E-01  mag=   124.4697
       N       E                     dE             d eps       ncg     rms          rms(c)
DAV:   1    -0.669516737369E+03    0.14441E-01   -0.88344E+00 24453   0.325E+00    0.119E+00
RMM:   2    -0.669584959408E+03   -0.68222E-01   -0.12848E-01 24000   0.811E-01    0.339E+00
RMM:   3    -0.669556661681E+03    0.28298E-01   -0.31358E-02 24000   0.330E-01    0.233E+00
RMM:   4    -0.669559582302E+03   -0.29206E-02   -0.16853E-02 24000   0.246E-01    0.231E+00
RMM:   5    -0.669542991848E+03    0.16590E-01   -0.72546E-03 24000   0.168E-01    0.101E+00
RMM:   6    -0.669539542883E+03    0.34490E-02   -0.17602E-03 24000   0.806E-02    0.292E-01
RMM:   7    -0.669539758527E+03   -0.21564E-03   -0.56652E-04 24000   0.443E-02    0.424E-01
RMM:   8    -0.669539632296E+03    0.12623E-03   -0.61380E-04 24000   0.439E-02    0.449E-01
RMM:   9    -0.669538914624E+03    0.71767E-03   -0.47642E-04 24000   0.396E-02    0.185E-01
RMM:  10    -0.669539254972E+03   -0.34035E-03   -0.40377E-04 24000   0.366E-02    0.353E-01
RMM:  11    -0.669538902876E+03    0.35210E-03   -0.23121E-04 24000   0.289E-02    0.172E-01
RMM:  12    -0.669538787988E+03    0.11489E-03   -0.67947E-05 22765   0.156E-02    0.372E-02
RMM:  13    -0.669538794520E+03   -0.65322E-05   -0.13468E-05 13842   0.722E-03
   7 F= -.66953879E+03 E0= -.66953388E+03  d E =-.399506E-01  mag=   124.4760
       N       E                     dE             d eps       ncg     rms          rms(c)
DAV:   1    -0.669534871420E+03    0.39166E-02   -0.36132E+00 24510   0.208E+00    0.816E-01
RMM:   2    -0.669568123162E+03   -0.33252E-01   -0.52653E-02 24000   0.514E-01    0.248E+00
RMM:   3    -0.669552810133E+03    0.15313E-01   -0.13303E-02 24000   0.215E-01    0.158E+00
RMM:   4    -0.669554026363E+03   -0.12162E-02   -0.81290E-03 24000   0.171E-01    0.151E+00
RMM:   5    -0.669546435639E+03    0.75907E-02   -0.34579E-03 24000   0.117E-01    0.588E-01
RMM:   6    -0.669545209851E+03    0.12258E-02   -0.65240E-04 24000   0.489E-02    0.170E-01
RMM:   7    -0.669545375485E+03   -0.16563E-03   -0.23743E-04 24000   0.287E-02    0.299E-01
RMM:   8    -0.669545208059E+03    0.16743E-03   -0.25140E-04 24000   0.280E-02    0.269E-01
RMM:   9    -0.669544973655E+03    0.23440E-03   -0.20626E-04 24000   0.262E-02    0.120E-01
RMM:  10    -0.669545121612E+03   -0.14796E-03   -0.15017E-04 23982   0.223E-02    0.226E-01
RMM:  11    -0.669544959932E+03    0.16168E-03   -0.84426E-05 23340   0.175E-02    0.101E-01
RMM:  12    -0.669544921671E+03    0.38261E-04   -0.22546E-05 15439   0.930E-03    0.219E-02
RMM:  13    -0.669544924554E+03   -0.28828E-05   -0.57792E-06 13176   0.473E-03
   8 F= -.66954492E+03 E0= -.66954007E+03  d E =-.613003E-02  mag=   124.4842
       N       E                     dE             d eps       ncg     rms          rms(c)
DAV:   1    -0.669542701705E+03    0.22200E-02   -0.10678E+00 24546   0.113E+00    0.444E-01
RMM:   2    -0.669552492050E+03   -0.97903E-02   -0.15529E-02 24000   0.279E-01    0.134E+00
RMM:   3    -0.669548040730E+03    0.44513E-02   -0.39402E-03 24000   0.117E-01    0.866E-01
RMM:   4    -0.669548363116E+03   -0.32239E-03   -0.24309E-03 24000   0.937E-02    0.820E-01
RMM:   5    -0.669546125851E+03    0.22373E-02   -0.10278E-03 24000   0.637E-02    0.321E-01
RMM:   6    -0.669545759335E+03    0.36652E-03   -0.19142E-04 24000   0.265E-02    0.916E-02
RMM:   7    -0.669545808235E+03   -0.48900E-04   -0.70039E-05 23138   0.156E-02    0.162E-01
RMM:   8    -0.669545760878E+03    0.47357E-04   -0.74576E-05 23956   0.153E-02    0.147E-01
RMM:   9    -0.669545690216E+03    0.70663E-04   -0.59465E-05 22291   0.142E-02    0.641E-02
RMM:  10    -0.669545736667E+03   -0.46451E-04   -0.44013E-05 21114   0.123E-02    0.125E-01
RMM:  11    -0.669545686382E+03    0.50284E-04   -0.24954E-05 15270   0.102E-02    0.537E-02
RMM:  12    -0.669545675656E+03    0.10726E-04   -0.73907E-06 13189   0.542E-03    0.110E-02
RMM:  13    -0.669545676519E+03   -0.86272E-06   -0.19033E-06 12720   0.271E-03
   9 F= -.66954568E+03 E0= -.66954087E+03  d E =-.688200E-02  mag=   124.4887
       N       E                     dE             d eps       ncg     rms          rms(c)
DAV:   1    -0.669544695301E+03    0.98036E-03   -0.82610E-01 24435   0.993E-01    0.380E-01
RMM:   2    -0.669552376295E+03   -0.76810E-02   -0.11828E-02 24000   0.243E-01    0.123E+00
RMM:   3    -0.669548412860E+03    0.39634E-02   -0.29943E-03 24000   0.102E-01    0.707E-01
RMM:   4    -0.669549061412E+03   -0.64855E-03   -0.18208E-03 24000   0.808E-02    0.749E-01
RMM:   5    -0.669547117670E+03    0.19437E-02   -0.84307E-04 24000   0.574E-02    0.207E-01
RMM:   6    -0.669546971578E+03    0.14609E-03   -0.11082E-04 23894   0.200E-02    0.842E-02
RMM:   7    -0.669547009523E+03   -0.37945E-04   -0.42705E-05 21240   0.123E-02    0.142E-01
RMM:   8    -0.669546957369E+03    0.52153E-04   -0.62340E-05 23748   0.138E-02    0.115E-01
RMM:   9    -0.669546910096E+03    0.47273E-04   -0.47151E-05 21491   0.127E-02    0.494E-02
RMM:  10    -0.669546938442E+03   -0.28345E-04   -0.32862E-05 18740   0.108E-02    0.985E-02
RMM:  11    -0.669546903757E+03    0.34684E-04   -0.19781E-05 14062   0.950E-03    0.263E-02
RMM:  12    -0.669546901555E+03    0.22021E-05   -0.32613E-06 12926   0.344E-03
  10 F= -.66954690E+03 E0= -.66954216E+03  d E =-.122504E-02  mag=   124.4931
