SQS-NiFe                                
           1
     1.772500   -7.090000   -1.772500
   -10.635000   -5.317500   -1.772500
     0.000000    0.000000  -14.180000
   Ni   Fe
  81  27
Direct configuration=     1
   0.78146403  0.96214311  0.15691410
   0.55310342  0.92526367  0.06620679
   0.89086777  0.81412294  0.03735533
   0.77726652  0.96256159  0.40922698
   0.55241373  0.92558445  0.31406864
   0.89005092  0.81203121  0.28705650
   0.66275940  0.77637444  0.19478438
   0.44161897  0.73835269  0.10452758
   0.22071822  0.70596893  0.01053961
   0.77779992  0.96230166  0.65516370
   0.33635066  0.88806711  0.47145841
   0.11363591  0.85064383  0.38147960
   0.66754196  0.77730018  0.44440253
   0.22411160  0.70342510  0.26007844
   0.99865378  0.66784855  0.16685739
   0.11250342  0.51981534  0.04778816
   0.88490297  0.48467761  0.20399164
   0.78094139  0.96140870  0.90776273
   0.55423869  0.92577935  0.81461713
   0.11133426  0.85099570  0.62665148
   0.89029726  0.81475221  0.78796743
   0.66727217  0.77866145  0.69287987
   0.77579872  0.63180110  0.57288629
   0.55744743  0.59328903  0.48141729
   0.33266416  0.55771862  0.38909714
   0.11150014  0.51999995  0.29559938
   0.66492986  0.44708462  0.36024725
   0.22415384  0.37001991  0.17621639
   0.99945318  0.33255237  0.08417962
   0.77838947  0.29739608  0.23982263
   0.55631780  0.26092172  0.14873623
   0.33099890  0.22315821  0.05631213
   0.89372087  0.14912728  0.11972362
   0.66574203  0.11194921  0.02715727
   0.33082736  0.88763038  0.97361544
   0.66638587  0.77542045  0.94671610
   0.44212145  0.74194950  0.85101096
   0.22290585  0.70533152  0.75830675
   0.00073947  0.66640467  0.66343777
   0.77756148  0.62982535  0.82350132
   0.55434965  0.59315434  0.72994144
   0.33157497  0.55778886  0.63657856
   0.89177256  0.48016851  0.70225865
   0.67023414  0.44298428  0.60996262
   0.44000343  0.40699333  0.51946386
   0.22162664  0.37210216  0.42468850
   0.99855522  0.33454404  0.33308999
   0.78038557  0.29961610  0.49051302
   0.55272766  0.26037089  0.39826934
   0.33145174  0.22098571  0.30479004
   0.89190928  0.14712726  0.37095262
   0.66693506  0.11071873  0.27774267
   0.44223564  0.07204973  0.18597692
   0.22069817  0.03775174  0.09366864
   0.00404048  0.99969222  0.99974082
   0.99967490  0.66816291  0.91789921
   0.55470370  0.59075023  0.98318999
   0.33464875  0.55383069  0.89018690
   0.11044929  0.51713389  0.79665058
   0.88848528  0.48214337  0.95461449
   0.66874073  0.44247171  0.86129942
   0.44632275  0.40617408  0.76822535
   0.21901712  0.36984019  0.67588218
   0.77995952  0.29699988  0.74026230
   0.55299557  0.25748879  0.64633402
   0.11263394  0.18426012  0.46398850
   0.89016031  0.14749003  0.61838101
   0.66712096  0.10987267  0.52744505
   0.44232243  0.07382784  0.43704736
   0.00234345  0.99843316  0.24972985
   0.22419265  0.36903690  0.92690355
   0.77640522  0.29760435  0.99065219
   0.33328862  0.22306490  0.80720691
   0.11035489  0.18703855  0.71232771
   0.88630296  0.15056855  0.87089047
   0.66643148  0.11176920  0.77829034
   0.44198134  0.07224962  0.68253811
   0.22340519  0.03547276  0.59214581
   0.44205186  0.07644283  0.93565772
   0.22183183  0.03666154  0.84365608
   0.00442623  0.99784417  0.75032159
   0.32780937  0.88664162  0.22597839
   0.11624056  0.85269440  0.13210134
   0.76985345  0.62554466  0.07784555
   0.55819011  0.91877274  0.56658034
   0.89259596  0.81727037  0.53333515
   0.44743337  0.73831517  0.35068853
   0.77268522  0.63043547  0.32710588
   0.55780364  0.59109615  0.22951695
   0.34151824  0.54905300  0.13985675
   0.65784215  0.44966850  0.11189398
   0.44949577  0.40758387  0.02024774
   0.33507028  0.88538547  0.71983721
   0.43911720  0.74625432  0.60295106
   0.22485004  0.70356632  0.50733629
   0.99607600  0.66380235  0.42145475
   0.89455158  0.48612475  0.45558187
   0.44960817  0.41276822  0.26339349
   0.11640497  0.85236380  0.87621376
   0.10524085  0.52154895  0.54278557
   0.11233067  0.18159095  0.21701905
   0.00717608  0.33660436  0.57946066
   0.32306458  0.22582401  0.55538457
   0.21693867  0.03601112  0.34001704
   0.00384013  0.32969787  0.83702279
   0.55338467  0.26207364  0.90111397
   0.00433055  0.99656187  0.49690011
   0.10629169  0.19040546  0.95925080
Direct configuration=     2
   0.78073358  0.96229625  0.15699485
   0.55416816  0.92583289  0.06586719
   0.89013891  0.81446784  0.03751248
   0.77673785  0.96261049  0.40823065
   0.55332458  0.92553624  0.31417923
   0.88933075  0.81264004  0.28748269
   0.66417729  0.77707500  0.19480863
   0.44210813  0.73919815  0.10316100
   0.22200354  0.70479275  0.01031704
   0.77832567  0.96241037  0.65581525
   0.33522203  0.88839102  0.47096802
   0.11258946  0.85030104  0.37992243
   0.66654243  0.77782503  0.44440145
   0.22329970  0.70266876  0.26040108
   0.99960047  0.66713155  0.16689036
   0.11205716  0.51926203  0.04741724
   0.88715998  0.48324401  0.20434628
   0.78059522  0.96167977  0.90771248
   0.55492168  0.92594986  0.81469147
   0.11002416  0.85109749  0.62743251
   0.88927530  0.81494765  0.78776264
   0.66818851  0.77758134  0.69391600
   0.77431008  0.63190403  0.57442926
   0.55599736  0.59344985  0.48209169
   0.33337347  0.55652651  0.38905615
   0.11109989  0.51955208  0.29579905
   0.66614076  0.44539817  0.36099329
   0.22306850  0.36969364  0.17641318
   0.99965778  0.33314551  0.08416261
   0.77815308  0.29727612  0.24029737
   0.55670495  0.26016047  0.14890923
   0.33210010  0.22265629  0.05647702
   0.89142708  0.14903616  0.12018302
   0.66599990  0.11103901  0.02742907
   0.33232257  0.88773609  0.97300215
   0.66574072  0.77622816  0.94610053
   0.44336006  0.74114276  0.85154560
   0.22223685  0.70410267  0.75845561
   0.00055169  0.66664386  0.66434504
   0.77842025  0.62982813  0.82363994
   0.55466837  0.59278293  0.73070762
   0.33177595  0.55697781  0.63719398
   0.89067160  0.48110035  0.70263350
   0.66833688  0.44334177  0.61051405
   0.44135345  0.40756062  0.51879630
   0.22276627  0.37183014  0.42366574
   0.99867783  0.33454202  0.33352081
   0.78017987  0.29859919  0.49023421
   0.55394452  0.25992130  0.39798814
   0.33255440  0.22136402  0.30507015
   0.88898150  0.14793082  0.37114178
   0.66642240  0.11103705  0.27806449
   0.44308477  0.07264024  0.18558042
   0.22183624  0.03754624  0.09307183
   0.00205246  0.00011198  0.99979025
   0.99983115  0.66693299  0.91768049
   0.55466121  0.59197052  0.98156178
   0.33374803  0.55450777  0.88945623
   0.11102823  0.51762338  0.79694057
   0.88808266  0.48240870  0.95454732
   0.66835680  0.44338070  0.86116546
   0.44595918  0.40671324  0.76822538
   0.22072047  0.37041168  0.67598954
   0.77981856  0.29664579  0.74044428
   0.55378798  0.25819637  0.64640038
   0.11166518  0.18446874  0.46278991
   0.88907904  0.14804557  0.61903245
   0.66622272  0.11011292  0.52780029
   0.44372951  0.07407109  0.43608551
   0.00003604  0.99912428  0.24994015
   0.22338336  0.37074355  0.92704793
   0.77638812  0.29734689  0.99157821
   0.33451663  0.22260063  0.80630012
   0.10964435  0.18589552  0.71242854
   0.88670027  0.14932730  0.87031498
   0.66621876  0.11155777  0.77791079
   0.44312235  0.07275127  0.68367747
   0.22286871  0.03555338  0.59224776
   0.44207235  0.07571447  0.93570134
   0.22343323  0.03670534  0.84291465
   0.00291243  0.99899614  0.74998485
   0.33284497  0.88763387  0.22342369
   0.11152515  0.85208077  0.13054727
   0.77590932  0.62921593  0.07515559
   0.55718846  0.92440065  0.56483867
   0.88975493  0.81499454  0.53621839
   0.44618245  0.73967113  0.35154677
   0.77699930  0.62987354  0.32435603
   0.55518589  0.59303656  0.23192180
   0.33226542  0.55521247  0.13884315
   0.66912242  0.44387284  0.11095334
   0.44513145  0.40724972  0.01919804
   0.33418500  0.88832452  0.72129154
   0.44266360  0.74118813  0.60226401
   0.22349212  0.70392649  0.50878096
   0.99946813  0.66658336  0.41686040
   0.89038900  0.48320693  0.45420870
   0.44675749  0.40852593  0.26733128
   0.11304103  0.85230762  0.87854220
   0.11028063  0.51970450  0.54584883
   0.11101505  0.18376248  0.21451341
   0.00085568  0.33491809  0.58217648
   0.33016128  0.22322120  0.55510644
   0.22154778  0.03624178  0.34187156
   0.00095325  0.33255565  0.83381989
   0.55478513  0.26041429  0.89939516
   0.00200302  0.99936749  0.49902150
   0.10980858  0.18695795  0.96226448
Direct configuration=     3
   0.78023412  0.96240096  0.15705007
   0.55489619  0.92622210  0.06563499
   0.88964053  0.81470368  0.03761993
   0.77637637  0.96264392  0.40754939
   0.55394739  0.92550328  0.31425485
   0.88883832  0.81305634  0.28777411
   0.66514679  0.77755402  0.19482521
   0.44244259  0.73977626  0.10222657
   0.22288241  0.70398851  0.01016485
   0.77868516  0.96248471  0.65626076
   0.33445031  0.88861250  0.47063271
   0.11187394  0.85006666  0.37885769
   0.66585899  0.77818390  0.44440071
   0.22274456  0.70215160  0.26062169
   0.00024779  0.66664128  0.16691291
   0.11175202  0.51888370  0.04716362
   0.88870324  0.48226376  0.20458877
   0.78035852  0.96186512  0.90767812
   0.55538868  0.92606645  0.81474230
   0.10912835  0.85116709  0.62796656
   0.88857651  0.81508128  0.78762261
   0.66881508  0.77684280  0.69462447
   0.77329220  0.63197441  0.57548429
   0.55500585  0.59355982  0.48255282
   0.33385848  0.55571139  0.38902811
   0.11082621  0.51924584  0.29593558
   0.66696874  0.44424504  0.36150340
   0.22232638  0.36947054  0.17654773
   0.99979768  0.33355108  0.08415097
   0.77799144  0.29719410  0.24062198
   0.55696967  0.25963995  0.14902753
   0.33285306  0.22231310  0.05658977
   0.88985866  0.14897386  0.12049714
   0.66617623  0.11041664  0.02761491
   0.33334494  0.88780837  0.97258281
   0.66529959  0.77678045  0.94567963
   0.44420698  0.74059113  0.85191116
   0.22177940  0.70326242  0.75855740
   0.00042329  0.66680740  0.66496540
   0.77900744  0.62983003  0.82373472
   0.55488630  0.59252897  0.73123151
   0.33191337  0.55642324  0.63761479
   0.88991880  0.48173751  0.70288981
   0.66703959  0.44358620  0.61089110
   0.44227656  0.40794851  0.51833985
   0.22354551  0.37164414  0.42296642
   0.99876167  0.33454063  0.33381540
   0.78003922  0.29790386  0.49004357
   0.55477658  0.25961388  0.39779586
   0.33330837  0.22162269  0.30526168
   0.88697959  0.14848027  0.37127112
   0.66607187  0.11125471  0.27828454
   0.44366538  0.07304402  0.18530930
   0.22261442  0.03740573  0.09266375
   0.00069311  0.00039899  0.99982404
   0.99993799  0.66609201  0.91753093
   0.55463216  0.59280491  0.98044847
   0.33313215  0.55497074  0.88895661
   0.11142408  0.51795808  0.79713886
   0.88780736  0.48259013  0.95450139
   0.66809428  0.44400223  0.86107386
   0.44571058  0.40708190  0.76822540
   0.22188516  0.37080245  0.67606296
   0.77972218  0.29640367  0.74056872
   0.55432981  0.25868019  0.64644575
   0.11100277  0.18461140  0.46197035
   0.88833970  0.14842544  0.61947788
   0.66560854  0.11027719  0.52804320
   0.44469162  0.07423743  0.43542783
  -0.00154169  0.99959685  0.25008395
   0.22283000  0.37191051  0.92714664
   0.77637643  0.29717085  0.99221140
   0.33535630  0.22228318  0.80568009
   0.10915850  0.18511396  0.71249749
   0.88697195  0.14847858  0.86992147
   0.66607331  0.11141320  0.77765126
   0.44390254  0.07309429  0.68445653
   0.22250188  0.03560850  0.59231747
   0.44208636  0.07521644  0.93573116
   0.22452822  0.03673530  0.84240768
   0.00187735  0.99978382  0.74975460
   0.33628815  0.88831234  0.22167687
   0.10830090  0.85166118  0.12948464
   0.78005013  0.63172622  0.07331628
   0.55650357  0.92824883  0.56364776
   0.88781232  0.81343841  0.53818985
   0.44532711  0.74059828  0.35213361
   0.77994912  0.62948932  0.32247578
   0.55339595  0.59436334  0.23356616
   0.32593864  0.55942412  0.13815009
   0.67683550  0.43990995  0.11031016
   0.44214727  0.40702123  0.01848028
   0.33357967  0.89033415  0.72228597
   0.44508852  0.73772404  0.60179422
   0.22256361  0.70417277  0.50976877
   0.00178756  0.66848492  0.41371893
   0.88754275  0.48121183  0.45326977
   0.44480829  0.40562520  0.27002381
   0.11074088  0.85226921  0.88013431
   0.11372667  0.51844333  0.54794338
   0.11011547  0.18524731  0.21280013
  -0.00346600  0.33376507  0.58403347
   0.33501377  0.22144148  0.55491626
   0.22469934  0.03639951  0.34313962
  -0.00102070  0.33450972  0.83162985
   0.55574272  0.25927967  0.89821989
   0.00041153  0.00128588  0.50047203
   0.11221332  0.18460066  0.96432513
Direct configuration=     4
   0.77936198  0.96291300  0.15723589
   0.55600791  0.92667187  0.06506230
   0.88907166  0.81508018  0.03736983
   0.77747934  0.96243865  0.40754245
   0.55470269  0.92554414  0.31421318
   0.88849634  0.81396720  0.28732192
   0.66567268  0.77780888  0.19474291
   0.44369419  0.74015234  0.10164743
   0.22300364  0.70388411  0.00929910
   0.77846243  0.96232319  0.65676126
   0.33296448  0.88860173  0.47126357
   0.11053655  0.85174324  0.37854303
   0.66594520  0.77802230  0.44475446
   0.22338719  0.70293376  0.25986053
  -0.00017456  0.66663351  0.16684018
   0.11102741  0.51854975  0.04683721
   0.88858585  0.48182942  0.20447224
   0.78007218  0.96210373  0.90742241
   0.55605849  0.92595855  0.81477902
   0.10981430  0.85110890  0.62868376
   0.88867529  0.81541375  0.78780065
   0.66687597  0.77711774  0.69507923
   0.77599752  0.63087427  0.57458063
   0.55511608  0.59369863  0.48186106
   0.33383490  0.55524761  0.38949313
   0.11196000  0.51842316  0.29600021
   0.66731076  0.44358678  0.36116301
   0.22332668  0.36985656  0.17650327
   0.00201383  0.33297626  0.08353691
   0.77787463  0.29691203  0.24117049
   0.55647577  0.25981042  0.14910953
   0.33468860  0.22194468  0.05622274
   0.88860041  0.14886968  0.12082144
   0.66638655  0.11029033  0.02729778
   0.33333670  0.88784911  0.97213689
   0.66535556  0.77760552  0.94498876
   0.44359397  0.74081712  0.85174176
   0.22226347  0.70388538  0.75853716
   0.00042255  0.66654686  0.66595547
   0.77967383  0.62990599  0.82398394
   0.55492184  0.59229669  0.73218258
   0.33236795  0.55570000  0.63846152
   0.88927840  0.48223116  0.70290394
   0.66604236  0.44380277  0.61123106
   0.44329194  0.40768791  0.51798926
   0.22196052  0.37123045  0.42436105
   0.99930681  0.33382548  0.33391718
   0.77967735  0.29687017  0.49023325
   0.55565558  0.25904462  0.39790761
   0.33303628  0.22145030  0.30508450
   0.88708307  0.14819162  0.37102445
   0.66577444  0.11140410  0.27828495
   0.44322144  0.07369544  0.18539075
   0.22261381  0.03671982  0.09283282
  -0.00011694  0.00086942  0.99971551
   0.00014293  0.66588424  0.91702601
   0.55541747  0.59194510  0.98108126
   0.33280179  0.55547709  0.88844275
   0.11170928  0.51809710  0.79723828
   0.88715257  0.48259071  0.95421982
   0.66703448  0.44407122  0.86160923
   0.44549516  0.40711749  0.76864441
   0.22285538  0.37000257  0.67586620
   0.77862034  0.29650993  0.74113216
   0.55485896  0.25944902  0.64654853
   0.11106725  0.18525007  0.46176736
   0.88729805  0.14880622  0.61990834
   0.66589983  0.11050471  0.52843771
   0.44506863  0.07473961  0.43484021
  -0.00037152  0.00007682  0.25005033
   0.22164611  0.37161849  0.92659394
   0.77701982  0.29628200  0.99138410
   0.33401530  0.22260497  0.80590140
   0.10952685  0.18489602  0.71232401
   0.88812281  0.14836670  0.86985724
   0.66599308  0.11119459  0.77751107
   0.44466587  0.07377511  0.68526134
   0.22246763  0.03600100  0.59221239
   0.44264911  0.07478112  0.93558423
   0.22476003  0.03678726  0.84247744
   0.00130073  0.99993170  0.74986112
   0.33715563  0.88872651  0.22034369
   0.10675040  0.85143309  0.12889138
   0.78094835  0.63269873  0.07286270
   0.55496028  0.92975598  0.56338390
   0.88611010  0.81282874  0.53883595
   0.44432711  0.74157744  0.35291033
   0.78039043  0.62933229  0.32177629
   0.55387411  0.59368427  0.23268189
   0.32732990  0.55947467  0.13812163
   0.67566442  0.44082384  0.11062245
   0.44191073  0.40749227  0.01873331
   0.33388129  0.89027696  0.72238728
   0.44633061  0.73756578  0.60215387
   0.22049404  0.70466091  0.51035298
   0.00246831  0.66756912  0.41360781
   0.88738794  0.48115113  0.45364718
   0.44368452  0.40486729  0.26998620
   0.10915117  0.85223934  0.88097245
   0.11344492  0.51745247  0.54804380
   0.10996261  0.18539329  0.21194586
  -0.00451363  0.33281391  0.58521299
   0.33640254  0.22104375  0.55488801
   0.22558131  0.03671426  0.34335982
  -0.00159591  0.33465200  0.83089227
   0.55660481  0.25829170  0.89744099
  -0.00115330  0.00157914  0.50116640
   0.11316152  0.18422001  0.96484048
Direct configuration=     5
   0.77835715  0.96350293  0.15744999
   0.55728875  0.92719007  0.06440249
   0.88841624  0.81551395  0.03708169
   0.77875010  0.96220216  0.40753446
   0.55557291  0.92559123  0.31416518
   0.88810234  0.81501664  0.28680094
   0.66627858  0.77810250  0.19464809
   0.44513620  0.74058563  0.10098018
   0.22314332  0.70376382  0.00830165
   0.77820580  0.96213711  0.65733790
   0.33125261  0.88858932  0.47199040
   0.10899571  0.85367489  0.37818049
   0.66604453  0.77783611  0.44516202
   0.22412759  0.70383491  0.25898357
  -0.00066116  0.66662455  0.16675639
   0.11019257  0.51816499  0.04646114
   0.88845059  0.48132900  0.20433798
   0.77974229  0.96237864  0.90712781
   0.55683019  0.92583424  0.81482133
   0.11060461  0.85104186  0.62951007
   0.88878910  0.81579679  0.78800578
   0.66464186  0.77743451  0.69560317
   0.77911441  0.62960676  0.57353949
   0.55524307  0.59385856  0.48106405
   0.33380774  0.55471327  0.39002890
   0.11326627  0.51747532  0.29607467
   0.66770482  0.44282838  0.36077082
   0.22447917  0.37030130  0.17645205
   0.00456712  0.33231399  0.08282942
   0.77774005  0.29658705  0.24180244
   0.55590674  0.26000682  0.14920402
   0.33680337  0.22152021  0.05579987
   0.88715073  0.14874965  0.12119508
   0.66662887  0.11014479  0.02693240
   0.33332720  0.88789605  0.97162314
   0.66542003  0.77855610  0.94419279
   0.44288770  0.74107749  0.85154659
   0.22282117  0.70460311  0.75851386
   0.00042169  0.66624667  0.66709617
   0.78044159  0.62999351  0.82427108
   0.55496277  0.59202907  0.73327835
   0.33289168  0.55486674  0.63943708
   0.88854057  0.48279991  0.70292021
   0.66489341  0.44405228  0.61162273
   0.44446179  0.40738765  0.51758533
   0.22013440  0.37075382  0.42596786
   0.99993488  0.33300153  0.33403446
   0.77926043  0.29567923  0.49045179
   0.55666830  0.25838875  0.39803636
   0.33272280  0.22125168  0.30488037
   0.88720229  0.14785905  0.37074025
   0.66543177  0.11157622  0.27828544
   0.44270995  0.07444596  0.18548459
   0.22261312  0.03592956  0.09302761
  -0.00105023  0.00141142  0.99959046
   0.00037904  0.66564485  0.91644427
   0.55632226  0.59095449  0.98181032
   0.33242117  0.55606047  0.88785072
   0.11203786  0.51825726  0.79735283
   0.88639816  0.48259138  0.95389542
   0.66581344  0.44415070  0.86222604
   0.44524696  0.40715850  0.76912716
   0.22397320  0.36908100  0.67563950
   0.77735088  0.29663235  0.74178132
   0.55546861  0.26033482  0.64666695
   0.11114154  0.18598591  0.46153349
   0.88609794  0.14924493  0.62040428
   0.66623545  0.11076684  0.52889224
   0.44550301  0.07531819  0.43416319
   0.00097667  0.00062982  0.25001159
   0.22028212  0.37128205  0.92595714
   0.77776109  0.29525793  0.99043094
   0.33247028  0.22297573  0.80615637
   0.10995124  0.18464493  0.71212414
   0.88944876  0.14823781  0.86978324
   0.66590064  0.11094273  0.77734954
   0.44554533  0.07455952  0.68618858
   0.22242817  0.03645322  0.59209133
   0.44329748  0.07427958  0.93541495
   0.22502710  0.03684713  0.84255782
   0.00063638  0.00010208  0.74998383
   0.33815508  0.88920370  0.21880768
   0.10496402  0.85117031  0.12820786
   0.78198323  0.63381919  0.07234011
   0.55318220  0.93149241  0.56307990
   0.88414892  0.81212633  0.53958034
   0.44317497  0.74270556  0.35380521
   0.78089887  0.62915137  0.32097039
   0.55442502  0.59290189  0.23166309
   0.32893282  0.55953291  0.13808885
   0.67431518  0.44187676  0.11098226
   0.44163820  0.40803496  0.01902482
   0.33422881  0.89021107  0.72250402
   0.44776167  0.73738344  0.60256823
   0.21810963  0.70522330  0.51102606
   0.00325262  0.66651400  0.41347979
   0.88720957  0.48108120  0.45408201
   0.44238980  0.40399408  0.26994286
   0.10731961  0.85220492  0.88193811
   0.11312030  0.51631087  0.54815949
   0.10978650  0.18556148  0.21096163
  -0.00572064  0.33171805  0.58657197
   0.33800259  0.22058552  0.55485546
   0.22659746  0.03707690  0.34361351
  -0.00225862  0.33481593  0.83004248
   0.55759806  0.25715343  0.89654359
  -0.00295618  0.00191702  0.50196641
   0.11425397  0.18378146  0.96543424
Direct configuration=     6
   0.77804673  0.96400655  0.15750535
   0.55742484  0.92752984  0.06407065
   0.88804378  0.81580439  0.03679303
   0.77849132  0.96234053  0.40787664
   0.55516907  0.92566671  0.31440874
   0.88863413  0.81506755  0.28674249
   0.66573089  0.77813969  0.19482138
   0.44557802  0.74103069  0.10033170
   0.22326573  0.70341081  0.00827434
   0.77801622  0.96162279  0.65740658
   0.33068660  0.88886808  0.47253235
   0.10872055  0.85409173  0.37827000
   0.66632067  0.77784633  0.44523857
   0.22465458  0.70452382  0.25875407
   0.00022144  0.66620420  0.16655048
   0.11037083  0.51811113  0.04626597
   0.88904712  0.48076449  0.20404213
   0.77984283  0.96289493  0.90678608
   0.55670452  0.92584052  0.81481036
   0.11055006  0.85111495  0.62977781
   0.88913945  0.81587044  0.78793347
   0.66443210  0.77720370  0.69555496
   0.77979967  0.62908067  0.57344523
   0.55489006  0.59399229  0.48089546
   0.33411675  0.55491062  0.38985955
   0.11379675  0.51735191  0.29600365
   0.66793409  0.44276360  0.36045793
   0.22463456  0.37042508  0.17603464
   0.00405748  0.33208625  0.08261558
   0.77801243  0.29655187  0.24124531
   0.55653687  0.26037325  0.14887222
   0.33809556  0.22151321  0.05526991
   0.88682033  0.14898497  0.12112835
   0.66690353  0.11040034  0.02658701
   0.33277150  0.88790290  0.97152118
   0.66537067  0.77862583  0.94385625
   0.44258990  0.74122109  0.85178613
   0.22323157  0.70516707  0.75850620
   0.00033464  0.66622149  0.66741526
   0.77968579  0.63018760  0.82461208
   0.55569431  0.59209048  0.73327663
   0.33285475  0.55501917  0.63931340
   0.88842590  0.48267389  0.70314707
   0.66488636  0.44422524  0.61164733
   0.44493372  0.40729577  0.51751743
   0.21978636  0.37022327  0.42687409
   0.00007983  0.33275869  0.33393304
   0.77956700  0.29578302  0.49050618
   0.55613677  0.25832781  0.39801383
   0.33217815  0.22134113  0.30485312
   0.88845321  0.14724705  0.37067758
   0.66564461  0.11150200  0.27824805
   0.44248412  0.07456222  0.18536747
   0.22254648  0.03563299  0.09281752
  -0.00120616  0.00171003  0.99963515
   0.00031775  0.66583861  0.91618339
   0.55644290  0.59116464  0.98196140
   0.33233551  0.55590058  0.88805004
   0.11206045  0.51798903  0.79718737
   0.88605850  0.48212516  0.95393335
   0.66514327  0.44393852  0.86265768
   0.44487396  0.40690394  0.76967049
   0.22406574  0.36874060  0.67546381
   0.77665018  0.29685939  0.74225574
   0.55526316  0.26067626  0.64703067
   0.11101653  0.18576708  0.46202122
   0.88594881  0.14903683  0.62079579
   0.66650957  0.11069443  0.52918363
   0.44563083  0.07544477  0.43409624
   0.00197928  0.00083122  0.24962456
   0.22051102  0.37086095  0.92573150
   0.77782978  0.29522399  0.99040654
   0.33159058  0.22306218  0.80650698
   0.11006622  0.18440997  0.71213745
   0.89042987  0.14822523  0.86950528
   0.66591292  0.11106192  0.77751898
   0.44543226  0.07486884  0.68640538
   0.22211640  0.03708038  0.59217945
   0.44337050  0.07406796  0.93521784
   0.22503014  0.03659844  0.84268498
   0.00119361  0.00009731  0.75006417
   0.33813327  0.88911950  0.21869904
   0.10520085  0.85112495  0.12782734
   0.78172340  0.63378313  0.07216208
   0.55255179  0.93161521  0.56320098
   0.88333482  0.81246547  0.53980564
   0.44238064  0.74279836  0.35343479
   0.78016274  0.62918897  0.32100410
   0.55433950  0.59293177  0.23167656
   0.32910741  0.55955334  0.13803379
   0.67472156  0.44168693  0.11089112
   0.44190078  0.40782974  0.01876762
   0.33374920  0.89062350  0.72259655
   0.44858336  0.73744329  0.60244504
   0.21718058  0.70494594  0.51160566
   0.00367336  0.66656884  0.41317214
   0.88697766  0.48047876  0.45427517
   0.44247215  0.40400223  0.27022651
   0.10712352  0.85259207  0.88180858
   0.11339258  0.51587607  0.54846473
   0.11006246  0.18558519  0.21064183
  -0.00560934  0.33143837  0.58694807
   0.33760133  0.22067646  0.55504921
   0.22620666  0.03702508  0.34363116
  -0.00228988  0.33456294  0.83013367
   0.55717880  0.25700450  0.89669558
  -0.00303281  0.00150015  0.50241513
   0.11425487  0.18400434  0.96522699
Direct configuration=     7
   0.77780473  0.96439917  0.15754850
   0.55753093  0.92779471  0.06381195
   0.88775341  0.81603081  0.03656800
   0.77828958  0.96244840  0.40814339
   0.55485424  0.92572555  0.31459861
   0.88904871  0.81510724  0.28669693
   0.66530393  0.77816869  0.19495648
   0.44592246  0.74137766  0.09982615
   0.22336116  0.70313561  0.00825305
   0.77786842  0.96122183  0.65746011
   0.33024534  0.88908540  0.47295484
   0.10850605  0.85441669  0.37833978
   0.66653595  0.77785429  0.44529824
   0.22506542  0.70506088  0.25857516
   0.00090951  0.66587651  0.16638996
   0.11050981  0.51806915  0.04611382
   0.88951216  0.48032441  0.20381149
   0.77992121  0.96329742  0.90651968
   0.55660655  0.92584542  0.81480180
   0.11050753  0.85117193  0.62998654
   0.88941257  0.81592785  0.78787710
   0.66426857  0.77702377  0.69551737
   0.78033389  0.62867054  0.57337175
   0.55461486  0.59409655  0.48076403
   0.33435765  0.55506448  0.38972754
   0.11421031  0.51725569  0.29594828
   0.66811283  0.44271310  0.36021400
   0.22475569  0.37052157  0.17570924
   0.00366017  0.33190870  0.08244887
   0.77822477  0.29652444  0.24081098
   0.55702811  0.26065892  0.14861356
   0.33910292  0.22150776  0.05485676
   0.88656275  0.14916843  0.12107632
   0.66711765  0.11059957  0.02631775
   0.33233829  0.88790823  0.97144170
   0.66533218  0.77868018  0.94359389
   0.44235773  0.74133304  0.85197288
   0.22355152  0.70560671  0.75850023
   0.00026677  0.66620186  0.66766402
   0.77909659  0.63033892  0.82487791
   0.55626460  0.59213835  0.73327528
   0.33282596  0.55513800  0.63921698
   0.88833650  0.48257565  0.70332393
   0.66488085  0.44436007  0.61166650
   0.44530162  0.40722414  0.51746450
   0.21951504  0.36980966  0.42758058
   0.00019283  0.33256938  0.33385398
   0.77980600  0.29586393  0.49054859
   0.55572239  0.25828031  0.39799627
   0.33175354  0.22141086  0.30483188
   0.88942840  0.14676995  0.37062872
   0.66581054  0.11144414  0.27821890
   0.44230806  0.07465285  0.18527617
   0.22249452  0.03540179  0.09265374
  -0.00132773  0.00194281  0.99966998
   0.00026997  0.66598966  0.91598001
   0.55653695  0.59132848  0.98207918
   0.33226872  0.55577594  0.88820543
   0.11207806  0.51777992  0.79705838
   0.88579371  0.48176170  0.95396292
   0.66462082  0.44377311  0.86299419
   0.44458317  0.40670548  0.77009406
   0.22413787  0.36847523  0.67532685
   0.77610393  0.29703640  0.74262558
   0.55510299  0.26094244  0.64731422
   0.11091907  0.18559647  0.46240144
   0.88583254  0.14887459  0.62110100
   0.66672328  0.11063797  0.52941078
   0.44573049  0.07554345  0.43404405
   0.00276090  0.00098824  0.24932284
   0.22068948  0.37053266  0.92555558
   0.77788333  0.29519754  0.99038752
   0.33090477  0.22312958  0.80678030
   0.11015584  0.18422680  0.71214782
   0.89119473  0.14821543  0.86928859
   0.66592249  0.11115483  0.77765108
   0.44534412  0.07510999  0.68657439
   0.22187334  0.03756930  0.59224814
   0.44342743  0.07390298  0.93506418
   0.22503251  0.03640456  0.84278412
   0.00162802  0.00009359  0.75012681
   0.33811627  0.88905385  0.21861434
   0.10538548  0.85108959  0.12753069
   0.78152085  0.63375503  0.07202329
   0.55206034  0.93171095  0.56329536
   0.88270016  0.81272986  0.53998129
   0.44176140  0.74287071  0.35314603
   0.77958886  0.62921829  0.32103039
   0.55427283  0.59295506  0.23168706
   0.32924351  0.55956927  0.13799086
   0.67503837  0.44153895  0.11082007
   0.44210549  0.40766975  0.01856712
   0.33337530  0.89094502  0.72266869
   0.44922394  0.73748994  0.60234900
   0.21645631  0.70472972  0.51205751
   0.00400137  0.66661160  0.41293231
   0.88679686  0.48000911  0.45442574
   0.44253635  0.40400859  0.27044764
   0.10697065  0.85289389  0.88170759
   0.11360485  0.51553711  0.54870270
   0.11027760  0.18560368  0.21039251
  -0.00552258  0.33122034  0.58724128
   0.33728852  0.22074736  0.55520025
   0.22590200  0.03698469  0.34364492
  -0.00231426  0.33436571  0.83020476
   0.55685196  0.25688840  0.89681407
  -0.00309255  0.00117516  0.50276495
   0.11425558  0.18417809  0.96506543
Direct configuration=     8
   0.77790314  0.96436616  0.15752518
   0.55745333  0.92796944  0.06366121
   0.88756720  0.81606555  0.03656486
   0.77791343  0.96261455  0.40819902
   0.55450956  0.92573134  0.31479643
   0.88920213  0.81510167  0.28657836
   0.66554049  0.77827808  0.19482892
   0.44590880  0.74161092  0.09964182
   0.22307297  0.70308965  0.00829379
   0.77747638  0.96114648  0.65768706
   0.33032740  0.88901606  0.47307805
   0.10853972  0.85427868  0.37863447
   0.66648783  0.77786358  0.44509703
   0.22514167  0.70523774  0.25834412
   0.00079283  0.66582321  0.16638798
   0.11062622  0.51794590  0.04582973
   0.88990561  0.48030035  0.20367986
   0.78003105  0.96353371  0.90632087
   0.55650888  0.92581827  0.81471412
   0.11048968  0.85118516  0.63001326
   0.88936161  0.81593191  0.78783494
   0.66443098  0.77678459  0.69557298