       N       E                     dE             d eps       ncg     rms          rms(c)
DAV:   1     0.466092197069E+04    0.46609E+04   -0.22951E+05 28809   0.155E+03
DAV:   2     0.230397034454E+02   -0.46379E+04   -0.43936E+04 28836   0.373E+02
DAV:   3    -0.454055832505E+03   -0.47710E+03   -0.42481E+03 35802   0.147E+02
DAV:   4    -0.535354574734E+03   -0.81299E+02   -0.75983E+02 55116   0.492E+01
DAV:   5    -0.542501643793E+03   -0.71471E+01   -0.67626E+01 47628   0.139E+01
RMM:   6    -0.542844402190E+03   -0.34276E+00   -0.33657E+00 31157   0.283E+00
RMM:   7    -0.542999455826E+03   -0.15505E+00   -0.15051E+00 48396   0.762E-01
RMM:   8    -0.543047292594E+03   -0.47837E-01   -0.51592E-01 55873   0.289E-01
RMM:   9    -0.543074174886E+03   -0.26882E-01   -0.27287E-01 54949   0.158E-01
RMM:  10    -0.543090791690E+03   -0.16617E-01   -0.16840E-01 50382   0.102E-01
RMM:  11    -0.543101777799E+03   -0.10986E-01   -0.11079E-01 47083   0.695E-02
RMM:  12    -0.543109321926E+03   -0.75441E-02   -0.75681E-02 40195   0.512E-02
RMM:  13    -0.543114604419E+03   -0.52825E-02   -0.52791E-02 36244   0.390E-02
RMM:  14    -0.543118383178E+03   -0.37788E-02   -0.37698E-02 34285   0.304E-02
RMM:  15    -0.543121115148E+03   -0.27320E-02   -0.27232E-02 32664   0.243E-02
RMM:  16    -0.543123121072E+03   -0.20059E-02   -0.19995E-02 30574   0.195E-02
RMM:  17    -0.543124610028E+03   -0.14890E-02   -0.14836E-02 28400   0.160E-02
RMM:  18    -0.543125725559E+03   -0.11155E-02   -0.11106E-02 26267   0.132E-02
RMM:  19    -0.543126572890E+03   -0.84733E-03   -0.84167E-03 24177   0.110E-02
RMM:  20    -0.543127223265E+03   -0.65038E-03   -0.64447E-03 22081   0.931E-03
RMM:  21    -0.543127727425E+03   -0.50416E-03   -0.49820E-03 20569   0.794E-03
RMM:  22    -0.543128121060E+03   -0.39363E-03   -0.38798E-03 19024   0.680E-03
RMM:  23    -0.543128431517E+03   -0.31046E-03   -0.30434E-03 17862   0.587E-03
RMM:  24    -0.543128677813E+03   -0.24630E-03   -0.23992E-03 16603   0.510E-03
RMM:  25    -0.543128873677E+03   -0.19586E-03   -0.19015E-03 15701   0.444E-03
RMM:  26    -0.543129029835E+03   -0.15616E-03   -0.15114E-03 15107   0.389E-03
RMM:  27    -0.543129154802E+03   -0.12497E-03   -0.12054E-03 14524   0.342E-03
RMM:  28    -0.543129255084E+03   -0.10028E-03   -0.96427E-04 13982   0.302E-03
RMM:  29    -0.543129335643E+03   -0.80560E-04   -0.77191E-04 13525   0.267E-03
RMM:  30    -0.543129400461E+03   -0.64818E-04   -0.61888E-04 13099   0.238E-03
RMM:  31    -0.543129452673E+03   -0.52212E-04   -0.49650E-04 12620   0.212E-03
RMM:  32    -0.543129494958E+03   -0.42285E-04   -0.40056E-04 12244   0.190E-03
RMM:  33    -0.543129529035E+03   -0.34077E-04   -0.32133E-04 11805   0.170E-03
RMM:  34    -0.543129556679E+03   -0.27644E-04   -0.25935E-04 11407   0.154E-03
RMM:  35    -0.543129579093E+03   -0.22413E-04   -0.20910E-04 11033   0.139E-03
RMM:  36    -0.543129597326E+03   -0.18234E-04   -0.16909E-04 10564   0.127E-03
RMM:  37    -0.543129612215E+03   -0.14889E-04   -0.13716E-04 10158   0.116E-03
RMM:  38    -0.543129624387E+03   -0.12171E-04   -0.11135E-04  9797   0.106E-03
RMM:  39    -0.543129634368E+03   -0.99812E-05   -0.90590E-05  9416   0.983E-04
RMM:  40    -0.543129642562E+03   -0.81944E-05   -0.73733E-05  9044   0.912E-04
RMM:  41    -0.543129649354E+03   -0.67923E-05   -0.60629E-05  8680   0.850E-04
RMM:  42    -0.543129654982E+03   -0.56275E-05   -0.49748E-05  8385   0.796E-04
RMM:  43    -0.543129659633E+03   -0.46512E-05   -0.40656E-05  8111   0.747E-04
RMM:  44    -0.543129663513E+03   -0.38803E-05   -0.33551E-05  7812   0.705E-04
RMM:  45    -0.543129666792E+03   -0.32788E-05   -0.28058E-05  7573   0.669E-04
RMM:  46    -0.543129669513E+03   -0.27207E-05   -0.22958E-05  7335   0.636E-04
RMM:  47    -0.543129671827E+03   -0.23144E-05   -0.19272E-05  7082   0.608E-04
RMM:  48    -0.543129673776E+03   -0.19483E-05   -0.15990E-05  6886   0.583E-04
RMM:  49    -0.543129675434E+03   -0.16580E-05   -0.13403E-05  6690   0.561E-04
RMM:  50    -0.543129676856E+03   -0.14227E-05   -0.11343E-05  6507   0.541E-04
RMM:  51    -0.543129678074E+03   -0.12173E-05   -0.95508E-06  6343   0.524E-04
RMM:  52    -0.543129679121E+03   -0.10474E-05   -0.80816E-06  6174   0.508E-04
RMM:  53    -0.543129680038E+03   -0.91738E-06   -0.69911E-06  6047   0.494E-04
   1 F= -.55654722E+03 E0= -.55654722E+03  d E =0.000000E+00  mag=   157.7337
