 vasp.5.4.4.18Apr17-6-g9f103f2a35 (build Dec 15 2018 21:27:11) complex          
  
 executed on             LinuxIFC date 2022.03.12  19:16:58
 running on   72 total cores
 distrk:  each k-point on   72 cores,    1 groups
 distr:  one band on NCORES_PER_BAND=  24 cores,    3 groups


--------------------------------------------------------------------------------------------------------


 INCAR:
 POTCAR:    PAW_PBE Fe 06Sep2000                  
 POTCAR:    PAW_PBE O 08Apr2002                   
 POTCAR:    PAW_PBE H 15Jun2001                   

 ----------------------------------------------------------------------------- 
|                                                                             |
|           W    W    AA    RRRRR   N    N  II  N    N   GGGG   !!!           |
|           W    W   A  A   R    R  NN   N  II  NN   N  G    G  !!!           |
|           W    W  A    A  R    R  N N  N  II  N N  N  G       !!!           |
|           W WW W  AAAAAA  RRRRR   N  N N  II  N  N N  G  GGG   !            |
|           WW  WW  A    A  R   R   N   NN  II  N   NN  G    G                |
|           W    W  A    A  R    R  N    N  II  N    N   GGGG   !!!           |
|                                                                             |
|      For optimal performance we recommend to set                            |
|        NCORE= 4 - approx SQRT( number of cores)                             |
|      NCORE specifies how many cores store one orbital (NPAR=cpu/NCORE).     |
|      This setting can  greatly improve the performance of VASP for DFT.     |
|      The default,   NCORE=1            might be grossly inefficient         |
|      on modern multi-core architectures or massively parallel machines.     |
|      Do your own testing !!!!                                               |
|      Unfortunately you need to use the default for GW and RPA calculations. |
|      (for HF NCORE is supported but not extensively tested yet)             |
|                                                                             |
 ----------------------------------------------------------------------------- 

 POTCAR:    PAW_PBE Fe 06Sep2000                  
   VRHFIN =Fe:  d7 s1                                                           
   LEXCH  = PE                                                                  
   EATOM  =   594.3153 eV,   43.6809 Ry                                         
                                                                                
   TITEL  = PAW_PBE Fe 06Sep2000                                                
   LULTRA =        F    use ultrasoft PP ?                                      
   IUNSCR =        1    unscreen: 0-lin 1-nonlin 2-no                           
   RPACOR =    2.000    partial core radius                                     
   POMASS =   55.847; ZVAL   =    8.000    mass and valenz                      
   RCORE  =    2.300    outmost cutoff radius                                   
   RWIGS  =    2.460; RWIGS  =    1.302    wigner-seitz radius (au A)           
   ENMAX  =  267.882; ENMIN  =  200.911 eV                                      
   RCLOC  =    1.701    cutoff for local pot                                    
   LCOR   =        T    correct aug charges                                     
   LPAW   =        T    paw PP                                                  
   EAUG   =  511.368                                                            
   DEXC   =    0.000                                                            
   RMAX   =    2.356    core radius for proj-oper                               
   RAUG   =    1.300    factor for augmentation sphere                          
   RDEP   =    2.442    radius for radial grids                                 
   RDEPT  =    1.890    core radius for aug-charge                              
                                                                                
   Atomic configuration                                                         
    9 entries                                                                   
     n  l   j            E        occ.                                          
     1  0  0.50     -6993.8440   2.0000                                         
     2  0  0.50      -814.6047   2.0000                                         
     2  1  1.50      -693.3689   6.0000                                         
     3  0  0.50       -89.4732   2.0000                                         
     3  1  1.50       -55.6373   6.0000                                         
     3  2  2.50        -3.8151   7.0000                                         
     4  0  0.50        -4.2551   1.0000                                         
     4  1  1.50        -3.4015   0.0000                                         
     4  3  2.50        -1.3606   0.0000                                         
   Description                                                                  
     l       E           TYP  RCUT    TYP  RCUT                                 
     2     -3.8151135     23  2.300                                             
     2     -5.1756961     23  2.300                                             
     0     -4.2550963     23  2.300                                             
     0      7.2035603     23  2.300                                             
     1     -2.7211652     23  2.300                                             
     1     18.4316424     23  2.300                                             
  local pseudopotential read in
  partial core-charges read in
  partial kinetic energy density read in
  atomic valenz-charges read in
  non local Contribution for L=           2  read in
    real space projection operators read in
  non local Contribution for L=           2  read in
    real space projection operators read in
  non local Contribution for L=           0  read in
    real space projection operators read in
  non local Contribution for L=           0  read in
    real space projection operators read in
  non local Contribution for L=           1  read in
    real space projection operators read in
  non local Contribution for L=           1  read in
    real space projection operators read in
    PAW grid and wavefunctions read in
 
   number of l-projection  operators is LMAX  =           6
   number of lm-projection operators is LMMAX =          18
 
 POTCAR:    PAW_PBE O 08Apr2002                   
   VRHFIN =O: s2p4                                                              
   LEXCH  = PE                                                                  
   EATOM  =   432.3788 eV,   31.7789 Ry                                         
                                                                                
   TITEL  = PAW_PBE O 08Apr2002                                                 
   LULTRA =        F    use ultrasoft PP ?                                      
   IUNSCR =        1    unscreen: 0-lin 1-nonlin 2-no                           
   RPACOR =    1.200    partial core radius                                     
   POMASS =   16.000; ZVAL   =    6.000    mass and valenz                      
   RCORE  =    1.520    outmost cutoff radius                                   
   RWIGS  =    1.550; RWIGS  =    0.820    wigner-seitz radius (au A)           
   ENMAX  =  400.000; ENMIN  =  300.000 eV                                      
   ICORE  =        2    local potential                                         
   LCOR   =        T    correct aug charges                                     
   LPAW   =        T    paw PP                                                  
   EAUG   =  605.392                                                            
   DEXC   =    0.000                                                            
   RMAX   =    1.553    core radius for proj-oper                               
   RAUG   =    1.300    factor for augmentation sphere                          
   RDEP   =    1.550    radius for radial grids                                 
   RDEPT  =    1.329    core radius for aug-charge                              
                                                                                
   Atomic configuration                                                         
    4 entries                                                                   
     n  l   j            E        occ.                                          
     1  0  0.50      -514.6923   2.0000                                         
     2  0  0.50       -23.9615   2.0000                                         
     2  1  0.50        -9.0305   4.0000                                         
     3  2  1.50        -9.5241   0.0000                                         
   Description                                                                  
     l       E           TYP  RCUT    TYP  RCUT                                 
     0    -23.9615318     23  1.200                                             
     0     -9.5240782     23  1.200                                             
     1     -9.0304911     23  1.520                                             
     1      8.1634956     23  1.520                                             
     2     -9.5240782      7  1.500                                             
  local pseudopotential read in
  partial core-charges read in
  partial kinetic energy density read in
  kinetic energy density of atom read in
  atomic valenz-charges read in
  non local Contribution for L=           0  read in
    real space projection operators read in
  non local Contribution for L=           0  read in
    real space projection operators read in
  non local Contribution for L=           1  read in
    real space projection operators read in
  non local Contribution for L=           1  read in
    real space projection operators read in
    PAW grid and wavefunctions read in
 
   number of l-projection  operators is LMAX  =           4
   number of lm-projection operators is LMMAX =           8
 
 POTCAR:    PAW_PBE H 15Jun2001                   
   VRHFIN =H: ultrasoft test                                                    
   LEXCH  = PE                                                                  
   EATOM  =    12.4884 eV,    0.9179 Ry                                         
                                                                                
   TITEL  = PAW_PBE H 15Jun2001                                                 
   LULTRA =        F    use ultrasoft PP ?                                      
   IUNSCR =        0    unscreen: 0-lin 1-nonlin 2-no                           
   RPACOR =    0.000    partial core radius                                     
   POMASS =    1.000; ZVAL   =    1.000    mass and valenz                      
   RCORE  =    1.100    outmost cutoff radius                                   
   RWIGS  =    0.700; RWIGS  =    0.370    wigner-seitz radius (au A)           
   ENMAX  =  250.000; ENMIN  =  200.000 eV                                      
   RCLOC  =    0.701    cutoff for local pot                                    
   LCOR   =        T    correct aug charges                                     
   LPAW   =        T    paw PP                                                  
   EAUG   =  400.000                                                            
   RMAX   =    1.123    core radius for proj-oper                               
   RAUG   =    1.200    factor for augmentation sphere                          
   RDEP   =    1.112    radius for radial grids                                 
   RDEPT  =    0.926    core radius for aug-charge                              
                                                                                
   Atomic configuration                                                         
    2 entries                                                                   
     n  l   j            E        occ.                                          
     1  0  0.50        -6.4927   1.0000                                         
     2  1  0.50        -3.4015   0.0000                                         
   Description                                                                  
     l       E           TYP  RCUT    TYP  RCUT                                 
     0     -6.4927494     23  1.100                                             
     0      6.8029130     23  1.100                                             
     1     -4.0817478     23  1.100                                             
  local pseudopotential read in
  atomic valenz-charges read in
  non local Contribution for L=           0  read in
    real space projection operators read in
  non local Contribution for L=           0  read in
    real space projection operators read in
  non local Contribution for L=           1  read in
    real space projection operators read in
    PAW grid and wavefunctions read in
 
   number of l-projection  operators is LMAX  =           3
   number of lm-projection operators is LMMAX =           5
 
 Optimization of the real space projectors (new method)

 maximal supplied QI-value         = 16.25
 optimisation between [QCUT,QGAM] = [ 11.54, 23.24] = [ 37.28,151.24] Ry 
 Optimized for a Real-space Cutoff    1.53 Angstroem

   l    n(q)    QCUT    max X(q) W(low)/X(q) W(high)/X(q)  e(spline) 
   2     10    11.539    80.901    0.11E-03    0.14E-03    0.21E-06
   2     10    11.539    75.754    0.11E-03    0.14E-03    0.22E-06
   0     11    11.539    58.752    0.52E-04    0.18E-04    0.33E-06
   0     11    11.539    30.679    0.44E-04    0.16E-04    0.30E-06
   1     10    11.539    17.977    0.53E-04    0.29E-04    0.13E-06
   1     10    11.539    13.559    0.44E-04    0.25E-04    0.11E-06
 Optimization of the real space projectors (new method)

 maximal supplied QI-value         = 24.76
 optimisation between [QCUT,QGAM] = [ 11.64, 23.27] = [ 37.91,151.63] Ry 
 Optimized for a Real-space Cutoff    1.14 Angstroem

   l    n(q)    QCUT    max X(q) W(low)/X(q) W(high)/X(q)  e(spline) 
   0      8    11.635    20.381    0.10E-03    0.33E-03    0.24E-06
   0      8    11.635    15.268    0.11E-03    0.35E-03    0.26E-06
   1      7    11.635     5.964    0.24E-03    0.31E-03    0.30E-06
   1      7    11.635     5.382    0.22E-03    0.25E-03    0.26E-06
 Optimization of the real space projectors (new method)

 maximal supplied QI-value         = 34.20
 optimisation between [QCUT,QGAM] = [ 11.63, 23.26] = [ 37.87,151.49] Ry 
 Optimized for a Real-space Cutoff    1.21 Angstroem

   l    n(q)    QCUT    max X(q) W(low)/X(q) W(high)/X(q)  e(spline) 
   0      8    11.629    19.460    0.17E-03    0.34E-03    0.21E-06
   0      8    11.629    12.209    0.16E-03    0.33E-03    0.21E-06
   1      8    11.629     4.655    0.18E-03    0.16E-03    0.26E-06
  PAW_PBE Fe 06Sep2000                  :
 energy of atom  1       EATOM= -594.3153
 kinetic energy error for atom=    0.0026 (will be added to EATOM!!)
  PAW_PBE O 08Apr2002                   :
 energy of atom  2       EATOM= -432.3788
 kinetic energy error for atom=    0.0208 (will be added to EATOM!!)
  PAW_PBE H 15Jun2001                   :
 energy of atom  3       EATOM=  -12.4884
 kinetic energy error for atom=    0.0014 (will be added to EATOM!!)
 
 
 POSCAR: POSCAR                                  
  positions in direct lattice
  velocities in cartesian coordinates
 exchange correlation table for  LEXCH =        8
   RHO(1)=    0.500       N(1)  =     2000
   RHO(2)=  100.500       N(2)  =     4000

 VTST: version 3.2, (02/03/18)

 CHAIN: initializing optimizer
 
 OPT: Using VASP Dynamics algorithm
 CHAIN: Read ICHAIN            0
 
 POSCAR: POSCAR                                  
  positions in direct lattice
  velocities in cartesian coordinates
 


--------------------------------------------------------------------------------------------------------


 ion  position               nearest neighbor table
   1  0.087  0.163  0.095-   5 2.48  13 2.48  17 2.48  49 2.48  31 2.48   3 2.48  29 2.87  53 2.87
                            15 2.87  19 2.87
   2  0.088  0.160  0.285-  32 2.38   3 2.44  31 2.45  50 2.47   4 2.47  14 2.48   6 2.48  18 2.50
                            20 2.82  15 2.83  54 2.84  19 2.84  16 2.87  30 2.89
   3  0.212  0.038  0.191-   2 2.44  54 2.44  15 2.48   7 2.48  51 2.48  19 2.48  53 2.48   1 2.48
                             6 2.83  50 2.85  31 2.87  55 2.87  49 2.87   5 2.87
   4  0.206  0.031  0.381-  65 1.89  16 2.42  52 2.42  54 2.47   2 2.47   8 2.54  20 2.54  50 2.77
                            56 2.86  32 2.87   6 2.95
   5  0.337  0.163  0.095-   1 2.48   9 2.48  21 2.48  53 2.48   7 2.48  19 2.48  17 2.87  57 2.87
                             3 2.87  23 2.87
   6  0.338  0.163  0.285-   7 2.44  19 2.44  20 2.46   8 2.46  10 2.48  22 2.48   2 2.48  54 2.48
                            24 2.80  23 2.83   3 2.83  58 2.86  18 2.86   4 2.95
   7  0.462  0.038  0.191-   6 2.44  58 2.44  11 2.48   3 2.48  55 2.48  23 2.48  57 2.48   5 2.48
                            10 2.84  54 2.84  19 2.87  59 2.87  53 2.87   9 2.87
   8  0.460  0.036  0.380-  65 1.87  12 2.43  56 2.44  58 2.45   6 2.46  24 2.49   4 2.54  54 2.82
                            60 2.84  20 2.86  10 2.86
   9  0.587  0.163  0.095-   5 2.48  13 2.48  25 2.48  57 2.48  11 2.48  23 2.48  21 2.87  61 2.87
                             7 2.87  27 2.87
  10  0.588  0.162  0.286-  24 2.42  12 2.44  11 2.45  23 2.46  58 2.47   6 2.48  14 2.49  26 2.49
                             7 2.84  27 2.84  28 2.85  62 2.86   8 2.86  22 2.87
  11  0.712  0.038  0.191-  62 2.44  10 2.45  15 2.48   7 2.48  59 2.48  27 2.48  61 2.48   9 2.48
                            14 2.84  58 2.84  23 2.87  63 2.87  57 2.87  13 2.87
  12  0.707  0.029  0.379-  66 1.86  60 2.39  62 2.43   8 2.43  10 2.44  16 2.54  28 2.56  58 2.74
                            64 2.85  24 2.89  14 2.92
  13  0.837  0.163  0.095-   1 2.48   9 2.48  29 2.48  61 2.48  15 2.48  27 2.48  49 2.87  25 2.87
                            11 2.87  31 2.87
  14  0.838  0.163  0.285-  15 2.44  27 2.44  28 2.45  16 2.47   2 2.48  30 2.48  10 2.49  62 2.49
                            32 2.78  31 2.83  11 2.84  50 2.87  26 2.87  12 2.92
  15  0.962  0.038  0.191-  14 2.44  50 2.46   3 2.48  11 2.48  31 2.48  63 2.48  13 2.48  49 2.48
                             2 2.83  62 2.84  27 2.87  51 2.87   1 2.87  61 2.87
  16  0.961  0.033  0.380-  66 1.86   4 2.42  50 2.43  64 2.44  14 2.47  12 2.54  32 2.54  62 2.82
                            52 2.82  28 2.83   2 2.87
  17  0.087  0.413  0.095-  21 2.48  29 2.48   1 2.48  33 2.48  19 2.48  47 2.48  45 2.87   5 2.87
                            31 2.87  35 2.87
  18  0.088  0.412  0.285-  48 2.42  19 2.44  20 2.45  47 2.46  22 2.47  34 2.48  30 2.49   2 2.50
                            36 2.74  32 2.76  35 2.84  31 2.84   6 2.86  46 2.88
  19  0.212  0.288  0.191-   6 2.44  18 2.44  23 2.48  31 2.48   3 2.48  35 2.48   5 2.48  17 2.48
                            22 2.84   2 2.84   7 2.87  47 2.87  21 2.87   1 2.87
  20  0.211  0.285  0.380-  65 1.87  36 2.43  32 2.44  18 2.45   6 2.46  24 2.48   4 2.54   2 2.82
                            48 2.85   8 2.86  22 2.86
  21  0.337  0.413  0.095-  17 2.48  25 2.48   5 2.48  37 2.48  35 2.48  23 2.48   9 2.87  33 2.87
                            19 2.87  39 2.87
  22  0.337  0.413  0.286-  24 2.42  36 2.44  35 2.45  23 2.46  18 2.47   6 2.48  38 2.49  26 2.49
                            19 2.84  39 2.84  40 2.85  34 2.86  20 2.86  10 2.87
  23  0.462  0.288  0.191-  22 2.46  10 2.46  19 2.48  27 2.48   7 2.48  39 2.48  21 2.48   9 2.48
                             6 2.83  26 2.87  35 2.87  11 2.87   5 2.87  25 2.87
  24  0.460  0.286  0.378-  69 2.03  10 2.42  22 2.42  20 2.48   8 2.49  40 2.54  28 2.54   6 2.80
                            26 2.83  12 2.89  36 2.89
  25  0.587  0.413  0.095-  21 2.48  29 2.48   9 2.48  41 2.48  39 2.48  27 2.48  13 2.87  37 2.87
                            23 2.87  43 2.87
  26  0.588  0.413  0.287-  42 2.47  30 2.47  27 2.47  39 2.47  40 2.48  28 2.48  22 2.49  10 2.49
                            44 2.78  24 2.83  43 2.85  23 2.87  14 2.87  38 2.87
  27  0.712  0.288  0.191-  14 2.44  26 2.47  23 2.48  31 2.48  11 2.48  43 2.48  25 2.48  13 2.48
                            30 2.83  10 2.84  39 2.87  15 2.87   9 2.87  29 2.87
  28  0.717  0.283  0.381-  66 1.90  69 2.05  14 2.45  32 2.47  26 2.48  44 2.49  24 2.54  12 2.56
                            16 2.83  10 2.85  30 2.86  40 2.97
  29  0.837  0.413  0.095-  17 2.48  25 2.48  13 2.48  45 2.48  43 2.48  31 2.48   1 2.87  41 2.87
                            27 2.87  47 2.87
  30  0.837  0.413  0.285-  32 2.39  43 2.44  31 2.45  44 2.45  26 2.47  46 2.48  14 2.48  18 2.49
                            48 2.81  27 2.83  47 2.83  42 2.85  28 2.86   2 2.89
  31  0.962  0.288  0.191-  30 2.45   2 2.45  27 2.48  19 2.48  15 2.48  47 2.48   1 2.48  29 2.48
                            14 2.83  18 2.84  43 2.87   3 2.87  17 2.87  13 2.87
  32  0.964  0.288  0.375-   2 2.38  30 2.39  48 2.44  20 2.44  28 2.47  16 2.54  18 2.76  14 2.78
                             4 2.87  44 2.88
  33  0.087  0.663  0.095-  37 2.48  45 2.48  17 2.48  49 2.48  35 2.48  63 2.48  61 2.87  21 2.87
                            47 2.87  51 2.87
  34  0.088  0.662  0.285-  64 2.40  36 2.43  35 2.44  63 2.45  18 2.48  46 2.48  38 2.49  50 2.49
                            52 2.82  47 2.83  51 2.84  48 2.85  22 2.86  62 2.88
  35  0.212  0.538  0.191-  34 2.44  22 2.45  39 2.48  47 2.48  19 2.48  51 2.48  21 2.48  33 2.48
                            38 2.84  18 2.84  23 2.87  63 2.87  37 2.87  17 2.87
  36  0.204  0.532  0.379-  68 1.86  48 2.39  34 2.43  20 2.43  22 2.44  52 2.54  40 2.56  18 2.74
                            64 2.85  24 2.89  38 2.92
  37  0.337  0.663  0.095-  33 2.48  41 2.48  21 2.48  53 2.48  51 2.48  39 2.48  25 2.87  49 2.87
                            35 2.87  55 2.87
  38  0.338  0.663  0.285-  51 2.44  39 2.44  40 2.45  52 2.47  54 2.48  42 2.48  22 2.49  34 2.49
                            56 2.78  55 2.83  35 2.84  50 2.87  26 2.87  36 2.92
  39  0.462  0.538  0.191-  38 2.44  26 2.47  35 2.48  43 2.48  23 2.48  55 2.48  37 2.48  25 2.48
                            42 2.83  22 2.84  51 2.87  27 2.87  21 2.87  41 2.87
  40  0.458  0.542  0.381-  68 1.90  69 2.05  38 2.45  56 2.47  26 2.48  44 2.49  24 2.54  36 2.56
                            52 2.83  22 2.85  42 2.86  28 2.97
  41  0.587  0.663  0.095-  37 2.48  45 2.48  25 2.48  57 2.48  55 2.48  43 2.48  29 2.87  53 2.87
                            39 2.87  59 2.87
  42  0.588  0.662  0.285-  56 2.39  43 2.44  55 2.45  44 2.45  26 2.47  46 2.48  38 2.48  58 2.49
                            60 2.81  39 2.83  59 2.83  30 2.85  40 2.86  54 2.89
  43  0.712  0.538  0.191-  42 2.44  30 2.44  39 2.48  47 2.48  27 2.48  59 2.48  41 2.48  29 2.48
                            46 2.82  26 2.85  55 2.87  31 2.87  25 2.87  45 2.87
  44  0.710  0.536  0.379-  67 1.94  42 2.45  30 2.45  40 2.49  28 2.49  60 2.50  48 2.50  26 2.78
                            46 2.87  56 2.87  32 2.88
  45  0.837  0.663  0.095-  33 2.48  41 2.48  29 2.48  61 2.48  59 2.48  47 2.48  17 2.87  57 2.87
                            43 2.87  63 2.87
  46  0.837  0.663  0.284-  47 2.43  59 2.43  48 2.47  60 2.47  30 2.48  42 2.48  34 2.48  62 2.48
                            64 2.80  43 2.82  63 2.82  44 2.87  58 2.88  18 2.88
  47  0.962  0.538  0.191-  46 2.43  18 2.46  43 2.48  35 2.48  31 2.48  63 2.48  17 2.48  45 2.48
                            34 2.83  30 2.83  59 2.87  19 2.87  33 2.87  29 2.87
  48  0.963  0.533  0.379-  67 1.86  36 2.39  18 2.42  32 2.44  46 2.47  44 2.50  64 2.52  30 2.81
                            20 2.85  34 2.85  60 2.92
  49  0.087  0.913  0.095-  53 2.48  61 2.48   1 2.48  33 2.48  15 2.48  51 2.48  37 2.87  13 2.87
                             3 2.87  63 2.87
  50  0.087  0.912  0.286-  16 2.43  52 2.43  51 2.46  15 2.46  54 2.47   2 2.47  34 2.49  62 2.49
                             4 2.77  64 2.79  63 2.84   3 2.85  38 2.87  14 2.87
  51  0.212  0.788  0.191-  38 2.44  50 2.46  55 2.48  63 2.48   3 2.48  35 2.48  49 2.48  37 2.48
                            54 2.82  34 2.84  39 2.87  15 2.87  53 2.87  33 2.87
  52  0.208  0.786  0.380-  68 1.86   4 2.42  50 2.43  64 2.44  38 2.47  36 2.54  56 2.54  34 2.82
                            16 2.82  40 2.83  54 2.87
  53  0.337  0.913  0.095-  49 2.48  57 2.48   5 2.48  37 2.48  55 2.48   3 2.48  41 2.87   1 2.87
                             7 2.87  51 2.87
  54  0.335  0.913  0.285-  56 2.38   3 2.44  55 2.45  50 2.47   4 2.47  38 2.48   6 2.48  58 2.50
                             8 2.82  51 2.82   2 2.84   7 2.84  52 2.87  42 2.89
  55  0.462  0.788  0.191-  42 2.45  54 2.45  51 2.48  59 2.48   7 2.48  39 2.48  41 2.48  53 2.48
                            38 2.83  58 2.84  43 2.87   3 2.87  37 2.87  57 2.87
  56  0.462  0.789  0.375-  54 2.38  42 2.39  60 2.44   8 2.44  40 2.47  52 2.54  58 2.76  38 2.78
                             4 2.86  44 2.87
  57  0.587  0.913  0.095-  53 2.48  61 2.48   9 2.48  41 2.48  59 2.48   7 2.48  45 2.87   5 2.87
                            11 2.87  55 2.87
  58  0.586  0.914  0.285-  60 2.42   7 2.44   8 2.45  59 2.46  10 2.47  62 2.48  42 2.49  54 2.50
                            12 2.74  56 2.76  11 2.84  55 2.84   6 2.86  46 2.88
  59  0.712  0.788  0.191-  46 2.43  58 2.46  55 2.48  63 2.48  11 2.48  43 2.48  45 2.48  57 2.48
                            62 2.83  42 2.83  47 2.87   7 2.87  41 2.87  61 2.87
  60  0.708  0.788  0.379-  67 1.86  12 2.39  58 2.42  56 2.44  46 2.47  44 2.50  64 2.52  42 2.81
                             8 2.84  62 2.85  48 2.92
  61  0.837  0.913  0.095-  49 2.48  57 2.48  13 2.48  45 2.48  11 2.48  63 2.48   9 2.87  33 2.87
                            59 2.87  15 2.87
  62  0.836  0.913  0.285-  64 2.40  12 2.43  11 2.44  63 2.45  58 2.48  46 2.48  14 2.49  50 2.49
                            16 2.82  59 2.83  15 2.84  60 2.85  10 2.86  34 2.88
  63  0.962  0.788  0.191-  34 2.45  62 2.45  59 2.48  51 2.48  47 2.48  15 2.48  61 2.48  33 2.48
                            46 2.82  50 2.84  35 2.87  11 2.87  49 2.87  45 2.87
  64  0.962  0.787  0.376-  62 2.40  34 2.40  16 2.44  52 2.44  48 2.52  60 2.52  50 2.79  46 2.80
                            12 2.85  36 2.85
  65  0.302  0.127  0.431-   8 1.87  20 1.87   4 1.89
  66  0.804  0.118  0.431-  16 1.86  12 1.86  28 1.90
  67  0.810  0.635  0.430-  48 1.86  60 1.86  44 1.94
  68  0.292  0.628  0.431-  52 1.86  36 1.86  40 1.90
  69  0.554  0.379  0.442-  70 0.97  24 2.03  28 2.05  40 2.05
  70  0.550  0.375  0.488-  69 0.97
 

IMPORTANT INFORMATION: All symmetrisations will be switched off!
NOSYMM: (Re-)initialisation of all symmetry stuff for point group C_1.

 
 

Automatic generation of k-mesh.
 generate k-points for:    4    4    2
Space group operators:
 irot       det(A)        alpha          n_x          n_y          n_z        tau_x        tau_y        tau_z
    1     1.000000     0.000001     1.000000     0.000000     0.000000     0.000000     0.000000     0.000000
 
 Subroutine IBZKPT returns following result:
 ===========================================
 
 Found     20 irreducible k-points:
 
 Following reciprocal coordinates:
            Coordinates               Weight
  0.000000  0.000000  0.000000      1.000000
  0.250000  0.000000  0.000000      2.000000
  0.500000  0.000000  0.000000      1.000000
  0.000000  0.250000  0.000000      2.000000
  0.250000  0.250000  0.000000      2.000000
  0.500000  0.250000  0.000000      2.000000
 -0.250000  0.250000  0.000000      2.000000
  0.000000  0.500000  0.000000      1.000000
  0.250000  0.500000  0.000000      2.000000
  0.500000  0.500000  0.000000      1.000000
  0.000000  0.000000  0.500000      1.000000
  0.250000  0.000000  0.500000      2.000000
  0.500000  0.000000  0.500000      1.000000
  0.000000  0.250000  0.500000      2.000000
  0.250000  0.250000  0.500000      2.000000
  0.500000  0.250000  0.500000      2.000000
 -0.250000  0.250000  0.500000      2.000000
  0.000000  0.500000  0.500000      1.000000
  0.250000  0.500000  0.500000      2.000000
  0.500000  0.500000  0.500000      1.000000
 
 Following cartesian coordinates:
            Coordinates               Weight
  0.000000  0.000000  0.000000      1.000000
  0.025178 -0.008902  0.000000      2.000000
  0.050355 -0.017803  0.000000      1.000000
  0.000000  0.026705  0.000000      2.000000
  0.025178  0.017803  0.000000      2.000000
  0.050355  0.008902  0.000000      2.000000
 -0.025178  0.035606  0.000000      2.000000
  0.000000  0.053410  0.000000      1.000000
  0.025178  0.044508  0.000000      2.000000
  0.050355  0.035606  0.000000      1.000000
  0.000000  0.000000  0.023719      1.000000
  0.025178 -0.008902  0.023719      2.000000
  0.050355 -0.017803  0.023719      1.000000
  0.000000  0.026705  0.023719      2.000000
  0.025178  0.017803  0.023719      2.000000
  0.050355  0.008902  0.023719      2.000000
 -0.025178  0.035606  0.023719      2.000000
  0.000000  0.053410  0.023719      1.000000
  0.025178  0.044508  0.023719      2.000000
  0.050355  0.035606  0.023719      1.000000
 
 TETIRR: Found     96 inequivalent tetrahedra from      192


--------------------------------------------------------------------------------------------------------




 Dimension of arrays:
   k-points           NKPTS =     20   k-points in BZ     NKDIM =     20   number of bands    NBANDS=    360
   number of dos      NEDOS =    301   number of ions     NIONS =     70
   non local maximal  LDIM  =      6   non local SUM 2l+1 LMDIM =     18
   total plane-waves  NPLWV = ******
   max r-space proj   IRMAX =   7948   max aug-charges    IRDMAX=  18812
   dimension x,y,z NGX =    80 NGY =   80 NGZ =  160
   dimension x,y,z NGXF=   160 NGYF=  160 NGZF=  320
   support grid    NGXF=   160 NGYF=  160 NGZF=  320
   ions per type =              64   5   1
   NGX,Y,Z   is equivalent  to a cutoff of  13.39, 13.39, 12.62 a.u.
   NGXF,Y,Z  is equivalent  to a cutoff of  26.79, 26.79, 25.24 a.u.

 SYSTEM =  SQS-NiFe                                
 POSCAR =  POSCAR                                  

 Startparameter for this run:
   NWRITE =      2    write-flag & timer
   PREC   = accura    normal or accurate (medium, high low for compatibility)
   ISTART =      0    job   : 0-new  1-cont  2-samecut
   ICHARG =     11    charge: 1-file 2-atom 10-const
   ISPIN  =      2    spin polarized calculation?
   LNONCOLLINEAR =      F non collinear calculations
   LSORBIT =      F    spin-orbit coupling
   INIWAV =      1    electr: 0-lowe 1-rand  2-diag
   LASPH  =      F    aspherical Exc in radial PAW
   METAGGA=      F    non-selfconsistent MetaGGA calc.

 Electronic Relaxation 1
   ENCUT  =  520.0 eV  38.22 Ry    6.18 a.u.  18.46 18.46 39.20*2*pi/ulx,y,z
   ENINI  =  520.0     initial cutoff
   ENAUG  =  605.4 eV  augmentation charge cutoff
   NELM   =    200;   NELMIN=  2; NELMDL=  0     # of ELM steps 
   EDIFF  = 0.1E-05   stopping-criterion for ELM
   LREAL  =      T    real-space projection
   NLSPLINE    = F    spline interpolate recip. space projectors
   LCOMPAT=      F    compatible to vasp.4.4
   GGA_COMPAT  = T    GGA compatible to vasp.4.4-vasp.4.6
   LMAXPAW     = -100 max onsite density
   LMAXMIX     =    2 max onsite mixed and CHGCAR
   VOSKOWN=      0    Vosko Wilk Nusair interpolation
   ROPT   =   -0.00025  -0.00025  -0.00025
 Ionic relaxation
   EDIFFG = -.2E-01   stopping-criterion for IOM
   NSW    =      0    number of steps for IOM
   NBLOCK =      1;   KBLOCK =      1    inner block; outer block 
   IBRION =     -1    ionic relax: 0-MD 1-quasi-New 2-CG
   NFREE  =      0    steps in history (QN), initial steepest desc. (CG)
   ISIF   =      2    stress and relaxation
   IWAVPR =     10    prediction:  0-non 1-charg 2-wave 3-comb
   ISYM   =      0    0-nonsym 1-usesym 2-fastsym
   LCORR  =      T    Harris-Foulkes like correction to forces

   POTIM  = 0.5000    time-step for ionic-motion
   TEIN   =    0.0    initial temperature
   TEBEG  =    0.0;   TEEND  =   0.0 temperature during run
   SMASS  =  -3.00    Nose mass-parameter (am)
   estimated Nose-frequenzy (Omega)   =  0.10E-29 period in steps =****** mass=  -0.225E-26a.u.
   SCALEE = 1.0000    scale energy and forces
   NPACO  =    256;   APACO  = 16.0  distance and # of slots for P.C.
   PSTRESS=    0.0 pullay stress

  Mass of Ions in am
   POMASS =  55.85 16.00  1.00
  Ionic Valenz
   ZVAL   =   8.00  6.00  1.00
  Atomic Wigner-Seitz radii
   RWIGS  =  -1.00 -1.00 -1.00
  virtual crystal weights 
   VCA    =   1.00  1.00  1.00
   NELECT =     543.0000    total number of electrons
   NUPDOWN=      -1.0000    fix difference up-down

 DOS related values:
   EMIN   =  10.00;   EMAX   =-10.00  energy-range for DOS
   EFERMI =   0.00
   ISMEAR =    -5;   SIGMA  =   0.20  broadening in eV -4-tet -1-fermi 0-gaus

 Electronic relaxation 2 (details)
   IALGO  =     68    algorithm
   LDIAG  =      T    sub-space diagonalisation (order eigenvalues)
   LSUBROT=      F    optimize rotation matrix (better conditioning)
   TURBO    =      0    0=normal 1=particle mesh
   IRESTART =      0    0=no restart 2=restart with 2 vectors
   NREBOOT  =      0    no. of reboots
   NMIN     =      0    reboot dimension
   EREF     =   0.00    reference energy to select bands
   IMIX   =      4    mixing-type and parameters
     AMIX     =   0.40;   BMIX     =  1.00
     AMIX_MAG =   1.60;   BMIX_MAG =  1.00
     AMIN     =   0.10
     WC   =   100.;   INIMIX=   1;  MIXPRE=   1;  MAXMIX= -45

 Intra band minimization:
   WEIMIN = 0.0000     energy-eigenvalue tresh-hold
   EBREAK =  0.69E-09  absolut break condition
   DEPER  =   0.30     relativ break condition  

   TIME   =   0.40     timestep for ELM

  volume/ion in A,a.u.               =      27.99       188.91
  Fermi-wavevector in a.u.,A,eV,Ry     =   1.067304  2.016911 15.498899  1.139137
  Thomas-Fermi vector in A             =   2.202916
 
 Write flags
   LWAVE        =      F    write WAVECAR
   LDOWNSAMPLE  =      F    k-point downsampling of WAVECAR
   LCHARG       =      F    write CHGCAR
   LVTOT        =      F    write LOCPOT, total local potential
   LVHAR        =      F    write LOCPOT, Hartree potential only
   LELF         =      F    write electronic localiz. function (ELF)
   LORBIT       =     11    0 simple, 1 ext, 2 COOP (PROOUT), +10 PAW based schemes


 Dipole corrections
   LMONO  =      F    monopole corrections only (constant potential shift)
   LDIPOL =      T    correct potential (dipole corrections)
   IDIPOL =      3    1-x, 2-y, 3-z, 4-all directions 
   EPSILON=  1.0000000 bulk dielectric constant

 Exchange correlation treatment:
   GGA     =    --    GGA type
   LEXCH   =     8    internal setting for exchange type
   VOSKOWN=      0    Vosko Wilk Nusair interpolation
   LHFCALC =     F    Hartree Fock is set to
   LHFONE  =     F    Hartree Fock one center treatment
   AEXX    =    0.0000 exact exchange contribution

 Linear response parameters
   LEPSILON=     F    determine dielectric tensor
   LRPA    =     F    only Hartree local field effects (RPA)
   LNABLA  =     F    use nabla operator in PAW spheres
   LVEL    =     F    velocity operator in full k-point grid
   LINTERFAST=   F  fast interpolation
   KINTER  =     0    interpolate to denser k-point grid
   CSHIFT  =0.1000    complex shift for real part using Kramers Kronig
   OMEGAMAX=  -1.0    maximum frequency
   DEG_THRESHOLD= 0.2000000E-02 threshold for treating states as degnerate
   RTIME   =   -0.100 relaxation time in fs
  (WPLASMAI=    0.000 imaginary part of plasma frequency in eV, 0.658/RTIME)
   DFIELD  = 0.0000000 0.0000000 0.0000000 field for delta impulse in time
 
 Orbital magnetization related:
   ORBITALMAG=     F  switch on orbital magnetization
   LCHIMAG   =     F  perturbation theory with respect to B field
   DQ        =  0.001000  dq finite difference perturbation B field
   LLRAUG    =     F  two centre corrections for induced B field



--------------------------------------------------------------------------------------------------------


 Static calculation
 charge density and potential remain constant during run
 spin polarized calculation
 RMM-DIIS sequential band-by-band and
  variant of blocked Davidson during initial phase
 perform sub-space diagonalisation
    before iterative eigenvector-optimisation
 no mixing
 using additional bands           88
 real space projection scheme for non local part
 use partial core corrections
 calculate Harris-corrections to forces 
   (improved forces if not selfconsistent)
 use gradient corrections 
 WARNING: stress and forces are not correct
  (second derivative of E(xc) not defined)
 use of overlap-Matrix (Vanderbilt PP)
 Fermi weights with tetrahedron method with Bloechl corrections


--------------------------------------------------------------------------------------------------------


  energy-cutoff  :      520.00
  volume of cell :     1959.57
      direct lattice vectors                 reciprocal lattice vectors
     9.929500000  0.000000000  0.000000000     0.100710006 -0.035606363  0.000000000
     3.309833230  9.361622420  0.000000000     0.000000000  0.106819091  0.000000000
     0.000000000  0.000000000 21.080550000     0.000000000  0.000000000  0.047437092

  length of vectors
     9.929500000  9.929500005 21.080550000     0.106819091  0.106819091  0.047437092


 
 k-points in units of 2pi/SCALE and weight: read from INCAR                         
   0.00000000  0.00000000  0.00000000       0.031
   0.02517750 -0.00890159  0.00000000       0.062
   0.05035500 -0.01780318  0.00000000       0.031
   0.00000000  0.02670477  0.00000000       0.062
   0.02517750  0.01780318  0.00000000       0.062
   0.05035500  0.00890159  0.00000000       0.062
  -0.02517750  0.03560636  0.00000000       0.062
   0.00000000  0.05340955  0.00000000       0.031
   0.02517750  0.04450795  0.00000000       0.062
   0.05035500  0.03560636  0.00000000       0.031
   0.00000000  0.00000000  0.02371855       0.031
   0.02517750 -0.00890159  0.02371855       0.062
   0.05035500 -0.01780318  0.02371855       0.031
   0.00000000  0.02670477  0.02371855       0.062
   0.02517750  0.01780318  0.02371855       0.062
   0.05035500  0.00890159  0.02371855       0.062
  -0.02517750  0.03560636  0.02371855       0.062
   0.00000000  0.05340955  0.02371855       0.031
   0.02517750  0.04450795  0.02371855       0.062
   0.05035500  0.03560636  0.02371855       0.031
 
 k-points in reciprocal lattice and weights: read from INCAR                         
   0.00000000  0.00000000  0.00000000       0.031
   0.25000000  0.00000000  0.00000000       0.062
   0.50000000  0.00000000  0.00000000       0.031
   0.00000000  0.25000000  0.00000000       0.062
   0.25000000  0.25000000  0.00000000       0.062
   0.50000000  0.25000000  0.00000000       0.062
  -0.25000000  0.25000000  0.00000000       0.062
   0.00000000  0.50000000  0.00000000       0.031
   0.25000000  0.50000000  0.00000000       0.062
   0.50000000  0.50000000  0.00000000       0.031
   0.00000000  0.00000000  0.50000000       0.031
   0.25000000  0.00000000  0.50000000       0.062
   0.50000000  0.00000000  0.50000000       0.031
   0.00000000  0.25000000  0.50000000       0.062
   0.25000000  0.25000000  0.50000000       0.062
   0.50000000  0.25000000  0.50000000       0.062
  -0.25000000  0.25000000  0.50000000       0.062
   0.00000000  0.50000000  0.50000000       0.031
   0.25000000  0.50000000  0.50000000       0.062
   0.50000000  0.50000000  0.50000000       0.031
 
 position of ions in fractional coordinates (direct lattice) 
   0.08738900  0.16261100  0.09487400
   0.08805884  0.16049282  0.28495458
   0.21238900  0.03761100  0.19102200
   0.20550250  0.03060065  0.38064930
   0.33738900  0.16261100  0.09487400
   0.33754578  0.16268706  0.28467204
   0.46238900  0.03761100  0.19102200
   0.45954980  0.03561460  0.37950043
   0.58738900  0.16261100  0.09487400
   0.58751132  0.16226095  0.28553925
   0.71238900  0.03761100  0.19102200
   0.70681724  0.02885685  0.37876288
   0.83738900  0.16261100  0.09487400
   0.83769503  0.16274011  0.28491391
   0.96238900  0.03761100  0.19102200
   0.96134394  0.03270494  0.37967715
   0.08738900  0.41261100  0.09487400
   0.08846056  0.41168515  0.28530289
   0.21238900  0.28761100  0.19102200
   0.21057924  0.28466899  0.37951384
   0.33738900  0.41261100  0.09487400
   0.33711586  0.41268584  0.28551574
   0.46238900  0.28761100  0.19102200
   0.46049547  0.28564506  0.37812983
   0.58738900  0.41261100  0.09487400
   0.58798973  0.41317008  0.28670458
   0.71238900  0.28761100  0.19102200
   0.71708436  0.28288061  0.38065218
   0.83738900  0.41261100  0.09487400
   0.83676164  0.41300368  0.28483031
   0.96238900  0.28761100  0.19102200
   0.96367142  0.28764929  0.37480337
   0.08738900  0.66261100  0.09487400
   0.08750377  0.66157853  0.28483756
   0.21238900  0.53761100  0.19102200
   0.20368742  0.53198899  0.37873425
   0.33738900  0.66261100  0.09487400
   0.33753499  0.66285990  0.28489954
   0.46238900  0.53761100  0.19102200
   0.45763497  0.54218200  0.38064876
   0.58738900  0.66261100  0.09487400
   0.58776916  0.66193334  0.28483757
   0.71238900  0.53761100  0.19102200
   0.71019760  0.53551084  0.37922161
   0.83738900  0.66261100  0.09487400
   0.83734244  0.66253132  0.28418788
   0.96238900  0.53761100  0.19102200
   0.96275266  0.53316955  0.37858987
   0.08738900  0.91261100  0.09487400
   0.08718012  0.91235703  0.28566941
   0.21238900  0.78761100  0.19102200
   0.20756590  0.78640325  0.37968916
   0.33738900  0.91261100  0.09487400
   0.33531053  0.91319953  0.28494538
   0.46238900  0.78761100  0.19102200
   0.46233907  0.78877575  0.37482257
   0.58738900  0.91261100  0.09487400
   0.58648881  0.91357395  0.28530451
   0.71238900  0.78761100  0.19102200
   0.70789775  0.78797453  0.37857899
   0.83738900  0.91261100  0.09487400
   0.83637920  0.91270470  0.28484979
   0.96238900  0.78761100  0.19102200
   0.96177516  0.78700676  0.37600978
   0.30155315  0.12662157  0.43106699
   0.80350096  0.11771554  0.43096382
   0.81018516  0.63542923  0.42999392
   0.29238031  0.62848274  0.43093983
   0.55405192  0.37916208  0.44218286
   0.55026937  0.37515852  0.48832369
 
 position of ions in cartesian coordinates  (Angst):
   1.40594437  1.52230278  1.99999610
   1.40558477  1.50247320  6.00699931
   2.23340271  0.35209998  4.02684882
   2.14182009  0.28647177  8.02429656
   3.88831937  1.52230278  1.99999610
   3.89012781  1.52301481  6.00104322
   4.71577771  0.35209998  4.02684882
   4.68097810  0.33341043  8.00007775
   6.37069437  1.52230278  1.99999610
   6.37075030  1.51902574  6.01932449
   7.19815271  0.35209998  4.02684882
   7.11385313  0.27014691  7.98452977
   8.85306937  1.52230278  1.99999610
   8.85653541  1.52351142  6.00614198
   9.68052771  0.35209998  4.02684882
   9.65391258  0.30617133  8.00380315
   2.23340267  3.86270839  1.99999610
   2.24097836  3.85404098  6.01434189
   3.06086102  2.69250559  4.02684882
   3.03315344  2.66496362  8.00036038
   4.71577767  3.86270839  1.99999610
   4.71331326  3.86340901  6.01882888
   5.54323602  2.69250559  4.02684882
   5.51792724  2.67410120  7.97118471
   7.19815267  3.86270839  1.99999610
   7.20596807  3.86794231  6.04389027
   8.02561102  2.69250559  4.02684882
   8.05657682  2.64822144  8.02435730
   9.68052767  3.86270839  1.99999610
   9.67559806  3.86638454  6.00437966
  10.50798602  2.69250559  4.02684882
  10.52084651  2.69286401  7.90106115
   3.06086098  6.20311399  1.99999610
   3.05858323  6.19344836  6.00453235
   3.88831933  5.03291119  4.02684882
   3.78330905  4.98028004  7.98392635
   5.54323598  6.20311399  1.99999610
   5.54550938  6.20544414  6.00583909
   6.37069433  5.03291119  4.02684882
   6.33861843  5.07570318  8.02428528
   8.02561098  6.20311399  1.99999610
   8.02714279  6.19676998  6.00453261
   8.85306933  5.03291119  4.02684882
   8.82435866  5.01325029  7.99420006
  10.50798598  6.20311399  1.99999610
  10.50725988  6.20236802  5.99083680
  11.33544433  5.03291119  4.02684882
  11.32435484  4.99133205  7.98088260
   3.88831929  8.54351960  1.99999610
   3.88540462  8.54114200  6.02206819
   4.71577764  7.37331680  4.02684882
   4.66388923  7.36201033  8.00405627
   6.37069429  8.54351960  1.99999610
   6.35200405  8.54902919  6.00680534
   7.19815264  7.37331680  4.02684882
   7.20151195  7.38422074  7.90146585
   8.85306929  8.54351960  1.99999610
   8.84731802  8.55253436  6.01437599
   9.68052764  7.37331680  4.02684882
   9.63713496  7.37672002  7.98065337
  11.33544429  8.54351960  1.99999610
  11.32572755  8.54439675  6.00479023
  12.16290264  7.37331680  4.02684882
  12.15480756  7.36766014  7.92649300
   3.41336830  1.18538331  9.08712921
   8.36798164  1.10200844  9.08495442
  10.14789832  5.94864851  9.06450824
   4.98336336  5.88361807  9.08444860
   6.75642177  3.54957226  9.32145780
   6.70561188  3.51209238 10.29413195
 


--------------------------------------------------------------------------------------------------------


 k-point  1 :   0.0000 0.0000 0.0000  plane waves:   52797
 k-point  2 :   0.2500 0.0000 0.0000  plane waves:   52779
 k-point  3 :   0.5000 0.0000 0.0000  plane waves:   52744
 k-point  4 :   0.0000 0.2500 0.0000  plane waves:   52779
 k-point  5 :   0.2500 0.2500 0.0000  plane waves:   52750
 k-point  6 :   0.5000 0.2500 0.0000  plane waves:   52748
 k-point  7 :  -0.2500 0.2500 0.0000  plane waves:   52735
 k-point  8 :   0.0000 0.5000 0.0000  plane waves:   52744
 k-point  9 :   0.2500 0.5000 0.0000  plane waves:   52748
 k-point 10 :   0.5000 0.5000 0.0000  plane waves:   52708
 k-point 11 :   0.0000 0.0000 0.5000  plane waves:   52814
 k-point 12 :   0.2500 0.0000 0.5000  plane waves:   52780
 k-point 13 :   0.5000 0.0000 0.5000  plane waves:   52804
 k-point 14 :   0.0000 0.2500 0.5000  plane waves:   52780
 k-point 15 :   0.2500 0.2500 0.5000  plane waves:   52788
 k-point 16 :   0.5000 0.2500 0.5000  plane waves:   52750
 k-point 17 :  -0.2500 0.2500 0.5000  plane waves:   52762
 k-point 18 :   0.0000 0.5000 0.5000  plane waves:   52804
 k-point 19 :   0.2500 0.5000 0.5000  plane waves:   52750
 k-point 20 :   0.5000 0.5000 0.5000  plane waves:   52708

 maximum and minimum number of plane-waves per node :      2226     2176

 maximum number of plane-waves:     52814
 maximum index in each direction: 
   IXMAX=   18   IYMAX=   18   IZMAX=   39
   IXMIN=  -18   IYMIN=  -18   IZMIN=  -39


 real space projection operators:
  total allocation   :      69831.79 KBytes
  max/ min on nodes  :       3506.25       2557.85


 parallel 3D FFT for wavefunctions:
    minimum data exchange during FFTs selected (reduces bandwidth)
 parallel 3D FFT for charge:
    minimum data exchange during FFTs selected (reduces bandwidth)


 total amount of memory used by VASP MPI-rank0   242503. kBytes
=======================================================================

   base      :      30000. kBytes
   nonlr-proj:      13673. kBytes
   fftplans  :       6402. kBytes
   grid      :      17692. kBytes
   one-center:         93. kBytes
   wavefun   :     174643. kBytes
 
     INWAV:  cpu time    0.0001: real time    0.0008
 initial charge density was supplied:
 number of electron     543.0000219 magnetization     157.7336988
 keeping initial charge density in first step


--------------------------------------------------------------------------------------------------------


 Maximum index for non-local projection operator          801
 Maximum index for augmentation-charges         1216 (set IRDMAX)


--------------------------------------------------------------------------------------------------------


 First call to EWALD:  gamma=   0.142
 Maximum number of real-space cells 4x 4x 2
 Maximum number of reciprocal cells 2x 2x 4

    FEWALD:  cpu time    0.0036: real time    0.0036


--------------------------------------- Iteration      1(   1)  ---------------------------------------


    POTLOK:  cpu time    0.4093: real time    0.4662
    SETDIJ:  cpu time    0.0252: real time    0.0267
     EDDAV:  cpu time  128.2711: real time  128.3344
 BZINTS: Fermi energy: 10.481128;543.000000 electrons
         Band energy:3511.556215;  BLOECHL correction: -0.010336
       DOS:  cpu time    0.2115: real time    0.2115
    --------------------------------------------
      LOOP:  cpu time  128.9171: real time  129.0388

 eigenvalue-minimisations  : 28809
 total energy-change (2. order) : 0.4660922E+04  (-0.2295132E+05)
 number of electron     543.0000219 magnetization     157.7336988
 augmentation part      543.0000219 magnetization     157.7336988

 DIPCOR: dipole corrections for dipol
 direction  3 min pos   245,
 dipolmoment           0.000000      0.000000     -0.001557 electrons x Angstroem
 Tr[quadrupol]     -8929.791113

 energy correction for charged system         0.000000 eV
 dipol+quadrupol energy correction           -0.000000 eV
 added-field ion interaction         -0.022745 eV  (added to PSCEN)


 Free energy of the ion-electron system (eV)
  ---------------------------------------------------
  alpha Z        PSCENC =      1564.86372735
  Ewald energy   TEWEN  =    149058.23502799
  -Hartree energ DENC   =   -189516.11887420
  -exchange      EXHF   =         0.00000000
  -V(xc)+E(xc)   XCENC  =       421.33059966
  PAW double counting   =     47542.04298076   -48131.27617416
  entropy T*S    EENTRO =         0.00000000
  eigenvalues    EBANDS =      3511.55621479
  atomic energy  EATOM  =     40210.28846851
  Solvation  Ediel_sol  =         0.00000000
  ---------------------------------------------------
  free energy    TOTEN  =      4660.92197069 eV

  energy without entropy =     4660.92197069  energy(sigma->0) =     4660.92197069


--------------------------------------------------------------------------------------------------------




--------------------------------------- Iteration      1(   2)  ---------------------------------------


     EDDAV:  cpu time  128.3998: real time  128.4204
 BZINTS: Fermi energy:  1.086685;543.000000 electrons
         Band energy:***********;  BLOECHL correction: -0.005962
       DOS:  cpu time    0.2079: real time    0.2079
    --------------------------------------------
      LOOP:  cpu time  128.6077: real time  128.6283

 eigenvalue-minimisations  : 28836
 total energy-change (2. order) :-0.4637882E+04  (-0.4393612E+04)
 number of electron     543.0000219 magnetization     157.7336988
 augmentation part      543.0000219 magnetization     157.7336988

 DIPCOR: dipole corrections for dipol
 direction  3 min pos   245,
 dipolmoment           0.000000      0.000000     -0.001557 electrons x Angstroem
 Tr[quadrupol]     -8929.791113

 energy correction for charged system         0.000000 eV
 dipol+quadrupol energy correction           -0.000000 eV
 added-field ion interaction         -0.022745 eV  (added to PSCEN)


 Free energy of the ion-electron system (eV)
  ---------------------------------------------------
  alpha Z        PSCENC =      1564.86372735
  Ewald energy   TEWEN  =    149058.23502799
  -Hartree energ DENC   =   -189516.11887420
  -exchange      EXHF   =         0.00000000
  -V(xc)+E(xc)   XCENC  =       421.33059966
  PAW double counting   =     47542.04298076   -48131.27617416
  entropy T*S    EENTRO =         0.00000000
  eigenvalues    EBANDS =     -1126.32605246
  atomic energy  EATOM  =     40210.28846851
  Solvation  Ediel_sol  =         0.00000000
  ---------------------------------------------------
  free energy    TOTEN  =        23.03970345 eV

  energy without entropy =       23.03970345  energy(sigma->0) =       23.03970345


--------------------------------------------------------------------------------------------------------




--------------------------------------- Iteration      1(   3)  ---------------------------------------


     EDDAV:  cpu time  151.5710: real time  151.5950
 BZINTS: Fermi energy: -0.062302;543.000000 electrons
         Band energy:***********;  BLOECHL correction: -0.034259
       DOS:  cpu time    0.1739: real time    0.1739
    --------------------------------------------
      LOOP:  cpu time  151.7449: real time  151.7689

 eigenvalue-minimisations  : 35802
 total energy-change (2. order) :-0.4770955E+03  (-0.4248058E+03)
 number of electron     543.0000219 magnetization     157.7336988
 augmentation part      543.0000219 magnetization     157.7336988

 DIPCOR: dipole corrections for dipol
 direction  3 min pos   245,
 dipolmoment           0.000000      0.000000     -0.001557 electrons x Angstroem
 Tr[quadrupol]     -8929.791113

 energy correction for charged system         0.000000 eV
 dipol+quadrupol energy correction           -0.000000 eV
 added-field ion interaction         -0.022745 eV  (added to PSCEN)


 Free energy of the ion-electron system (eV)
  ---------------------------------------------------
  alpha Z        PSCENC =      1564.86372735
  Ewald energy   TEWEN  =    149058.23502799
  -Hartree energ DENC   =   -189516.11887420
  -exchange      EXHF   =         0.00000000
  -V(xc)+E(xc)   XCENC  =       421.33059966
  PAW double counting   =     47542.04298076   -48131.27617416
  entropy T*S    EENTRO =         0.00000000
  eigenvalues    EBANDS =     -1603.42158841
  atomic energy  EATOM  =     40210.28846851
  Solvation  Ediel_sol  =         0.00000000
  ---------------------------------------------------
  free energy    TOTEN  =      -454.05583251 eV

  energy without entropy =     -454.05583251  energy(sigma->0) =     -454.05583251


--------------------------------------------------------------------------------------------------------




--------------------------------------- Iteration      1(   4)  ---------------------------------------


     EDDAV:  cpu time  215.7873: real time  215.8179
 BZINTS: Fermi energy: -0.404486;543.000000 electrons
         Band energy:***********;  BLOECHL correction: -0.028631
       DOS:  cpu time    0.1900: real time    0.1900
    --------------------------------------------
      LOOP:  cpu time  215.9773: real time  216.0080

 eigenvalue-minimisations  : 55116
 total energy-change (2. order) :-0.8129874E+02  (-0.7598294E+02)
 number of electron     543.0000219 magnetization     157.7336988
 augmentation part      543.0000219 magnetization     157.7336988

 DIPCOR: dipole corrections for dipol
 direction  3 min pos   245,
 dipolmoment           0.000000      0.000000     -0.001557 electrons x Angstroem
 Tr[quadrupol]     -8929.791113

 energy correction for charged system         0.000000 eV
 dipol+quadrupol energy correction           -0.000000 eV
 added-field ion interaction         -0.022745 eV  (added to PSCEN)


 Free energy of the ion-electron system (eV)
  ---------------------------------------------------
  alpha Z        PSCENC =      1564.86372735
  Ewald energy   TEWEN  =    149058.23502799
  -Hartree energ DENC   =   -189516.11887420
  -exchange      EXHF   =         0.00000000
  -V(xc)+E(xc)   XCENC  =       421.33059966
  PAW double counting   =     47542.04298076   -48131.27617416
  entropy T*S    EENTRO =         0.00000000
  eigenvalues    EBANDS =     -1684.72033064
  atomic energy  EATOM  =     40210.28846851
  Solvation  Ediel_sol  =         0.00000000
  ---------------------------------------------------
  free energy    TOTEN  =      -535.35457473 eV

  energy without entropy =     -535.35457473  energy(sigma->0) =     -535.35457473


--------------------------------------------------------------------------------------------------------




--------------------------------------- Iteration      1(   5)  ---------------------------------------


     EDDAV:  cpu time  190.6983: real time  190.7278
 BZINTS: Fermi energy: -0.482076;543.000000 electrons
         Band energy:***********;  BLOECHL correction: -0.027116
       DOS:  cpu time    0.1911: real time    0.1911
    --------------------------------------------
      LOOP:  cpu time  190.8894: real time  190.9189

 eigenvalue-minimisations  : 47628
 total energy-change (2. order) :-0.7147069E+01  (-0.6762565E+01)
 number of electron     543.0000219 magnetization     157.7336988
 augmentation part      543.0000219 magnetization     157.7336988

 DIPCOR: dipole corrections for dipol
 direction  3 min pos   245,
 dipolmoment           0.000000      0.000000     -0.001557 electrons x Angstroem
 Tr[quadrupol]     -8929.791113

 energy correction for charged system         0.000000 eV
 dipol+quadrupol energy correction           -0.000000 eV
 added-field ion interaction         -0.022745 eV  (added to PSCEN)


 Free energy of the ion-electron system (eV)
  ---------------------------------------------------
  alpha Z        PSCENC =      1564.86372735
  Ewald energy   TEWEN  =    149058.23502799
  -Hartree energ DENC   =   -189516.11887420
  -exchange      EXHF   =         0.00000000
  -V(xc)+E(xc)   XCENC  =       421.33059966
  PAW double counting   =     47542.04298076   -48131.27617416
  entropy T*S    EENTRO =         0.00000000
  eigenvalues    EBANDS =     -1691.86739970
  atomic energy  EATOM  =     40210.28846851
  Solvation  Ediel_sol  =         0.00000000
  ---------------------------------------------------
  free energy    TOTEN  =      -542.50164379 eV

  energy without entropy =     -542.50164379  energy(sigma->0) =     -542.50164379


--------------------------------------------------------------------------------------------------------




--------------------------------------- Iteration      1(   6)  ---------------------------------------


    EDDIAG:  cpu time   19.4000: real time   19.4131
  RMM-DIIS:  cpu time   75.4275: real time   75.4324
    ORTHCH:  cpu time    5.2366: real time    5.2367
 BZINTS: Fermi energy: -0.488113;543.000000 electrons
         Band energy:***********;  BLOECHL correction: -0.030381
       DOS:  cpu time    0.1808: real time    0.1808
    --------------------------------------------
      LOOP:  cpu time  100.2450: real time  100.2631

 eigenvalue-minimisations  : 31157
 total energy-change (2. order) :-0.3427584E+00  (-0.3365722E+00)
 number of electron     543.0000219 magnetization     157.7336988
 augmentation part      543.0000219 magnetization     157.7336988

 DIPCOR: dipole corrections for dipol
 direction  3 min pos   245,
 dipolmoment           0.000000      0.000000     -0.001557 electrons x Angstroem
 Tr[quadrupol]     -8929.791113

 energy correction for charged system         0.000000 eV
 dipol+quadrupol energy correction           -0.000000 eV
 added-field ion interaction         -0.022745 eV  (added to PSCEN)


 Free energy of the ion-electron system (eV)
  ---------------------------------------------------
  alpha Z        PSCENC =      1564.86372735
  Ewald energy   TEWEN  =    149058.23502799
  -Hartree energ DENC   =   -189516.11887420
  -exchange      EXHF   =         0.00000000
  -V(xc)+E(xc)   XCENC  =       421.33059966
  PAW double counting   =     47542.04298076   -48131.27617416
  entropy T*S    EENTRO =         0.00000000
  eigenvalues    EBANDS =     -1692.21015810
  atomic energy  EATOM  =     40210.28846851
  Solvation  Ediel_sol  =         0.00000000
  ---------------------------------------------------
  free energy    TOTEN  =      -542.84440219 eV

  energy without entropy =     -542.84440219  energy(sigma->0) =     -542.84440219


--------------------------------------------------------------------------------------------------------




--------------------------------------- Iteration      1(   7)  ---------------------------------------


    EDDIAG:  cpu time   19.3724: real time   19.3856
  RMM-DIIS:  cpu time  115.1476: real time  115.1546
    ORTHCH:  cpu time    5.2277: real time    5.2280
 BZINTS: Fermi energy: -0.490650;543.000000 electrons
         Band energy:***********;  BLOECHL correction: -0.032152
       DOS:  cpu time    0.1943: real time    0.1943
    --------------------------------------------
      LOOP:  cpu time  139.9421: real time  139.9625

 eigenvalue-minimisations  : 48396
 total energy-change (2. order) :-0.1550536E+00  (-0.1505142E+00)
 number of electron     543.0000219 magnetization     157.7336988
 augmentation part      543.0000219 magnetization     157.7336988

 DIPCOR: dipole corrections for dipol
 direction  3 min pos   245,
 dipolmoment           0.000000      0.000000     -0.001557 electrons x Angstroem
 Tr[quadrupol]     -8929.791113

 energy correction for charged system         0.000000 eV
 dipol+quadrupol energy correction           -0.000000 eV
 added-field ion interaction         -0.022745 eV  (added to PSCEN)


 Free energy of the ion-electron system (eV)
  ---------------------------------------------------
  alpha Z        PSCENC =      1564.86372735
  Ewald energy   TEWEN  =    149058.23502799
  -Hartree energ DENC   =   -189516.11887420
  -exchange      EXHF   =         0.00000000
  -V(xc)+E(xc)   XCENC  =       421.33059966
  PAW double counting   =     47542.04298076   -48131.27617416
  entropy T*S    EENTRO =         0.00000000
  eigenvalues    EBANDS =     -1692.36521173
  atomic energy  EATOM  =     40210.28846851
  Solvation  Ediel_sol  =         0.00000000
  ---------------------------------------------------
  free energy    TOTEN  =      -542.99945583 eV

  energy without entropy =     -542.99945583  energy(sigma->0) =     -542.99945583


--------------------------------------------------------------------------------------------------------




--------------------------------------- Iteration      1(   8)  ---------------------------------------


    EDDIAG:  cpu time   19.3788: real time   19.3933
  RMM-DIIS:  cpu time  132.9546: real time  132.9731
    ORTHCH:  cpu time    5.2386: real time    5.2390
 BZINTS: Fermi energy: -0.491959;543.000000 electrons
         Band energy:***********;  BLOECHL correction: -0.032423
       DOS:  cpu time    0.1935: real time    0.1935
    --------------------------------------------
      LOOP:  cpu time  157.7656: real time  157.7988

 eigenvalue-minimisations  : 55873
 total energy-change (2. order) :-0.4783677E-01  (-0.5159157E-01)
 number of electron     543.0000219 magnetization     157.7336988
 augmentation part      543.0000219 magnetization     157.7336988

 DIPCOR: dipole corrections for dipol
 direction  3 min pos   245,
 dipolmoment           0.000000      0.000000     -0.001557 electrons x Angstroem
 Tr[quadrupol]     -8929.791113

 energy correction for charged system         0.000000 eV
 dipol+quadrupol energy correction           -0.000000 eV
 added-field ion interaction         -0.022745 eV  (added to PSCEN)


 Free energy of the ion-electron system (eV)
  ---------------------------------------------------
  alpha Z        PSCENC =      1564.86372735
  Ewald energy   TEWEN  =    149058.23502799
  -Hartree energ DENC   =   -189516.11887420
  -exchange      EXHF   =         0.00000000
  -V(xc)+E(xc)   XCENC  =       421.33059966
  PAW double counting   =     47542.04298076   -48131.27617416
  entropy T*S    EENTRO =         0.00000000
  eigenvalues    EBANDS =     -1692.41304850
  atomic energy  EATOM  =     40210.28846851
  Solvation  Ediel_sol  =         0.00000000
  ---------------------------------------------------
  free energy    TOTEN  =      -543.04729259 eV

  energy without entropy =     -543.04729259  energy(sigma->0) =     -543.04729259


--------------------------------------------------------------------------------------------------------




--------------------------------------- Iteration      1(   9)  ---------------------------------------


    EDDIAG:  cpu time   19.3460: real time   19.3582
  RMM-DIIS:  cpu time  131.0177: real time  131.0254
    ORTHCH:  cpu time    5.2302: real time    5.2302
 BZINTS: Fermi energy: -0.492876;543.000000 electrons
         Band energy:***********;  BLOECHL correction: -0.032239
       DOS:  cpu time    0.1925: real time    0.1925
    --------------------------------------------
      LOOP:  cpu time  155.7864: real time  155.8064

 eigenvalue-minimisations  : 54949
 total energy-change (2. order) :-0.2688229E-01  (-0.2728687E-01)
 number of electron     543.0000219 magnetization     157.7336988
 augmentation part      543.0000219 magnetization     157.7336988

 DIPCOR: dipole corrections for dipol
 direction  3 min pos   245,
 dipolmoment           0.000000      0.000000     -0.001557 electrons x Angstroem
 Tr[quadrupol]     -8929.791113

 energy correction for charged system         0.000000 eV
 dipol+quadrupol energy correction           -0.000000 eV
 added-field ion interaction         -0.022745 eV  (added to PSCEN)


 Free energy of the ion-electron system (eV)
  ---------------------------------------------------
  alpha Z        PSCENC =      1564.86372735
  Ewald energy   TEWEN  =    149058.23502799
  -Hartree energ DENC   =   -189516.11887420
  -exchange      EXHF   =         0.00000000
  -V(xc)+E(xc)   XCENC  =       421.33059966
  PAW double counting   =     47542.04298076   -48131.27617416
  entropy T*S    EENTRO =         0.00000000
  eigenvalues    EBANDS =     -1692.43993079
  atomic energy  EATOM  =     40210.28846851
  Solvation  Ediel_sol  =         0.00000000
  ---------------------------------------------------
  free energy    TOTEN  =      -543.07417489 eV

  energy without entropy =     -543.07417489  energy(sigma->0) =     -543.07417489


--------------------------------------------------------------------------------------------------------




--------------------------------------- Iteration      1(  10)  ---------------------------------------


    EDDIAG:  cpu time   19.3883: real time   19.4021
  RMM-DIIS:  cpu time  120.6139: real time  120.6180
    ORTHCH:  cpu time    5.2331: real time    5.2334
 BZINTS: Fermi energy: -0.493549;543.000000 electrons
         Band energy:***********;  BLOECHL correction: -0.032074
       DOS:  cpu time    0.1925: real time    0.1924
    --------------------------------------------
      LOOP:  cpu time  145.4279: real time  145.4459

 eigenvalue-minimisations  : 50382
 total energy-change (2. order) :-0.1661680E-01  (-0.1683997E-01)
 number of electron     543.0000219 magnetization     157.7336988
 augmentation part      543.0000219 magnetization     157.7336988

 DIPCOR: dipole corrections for dipol
 direction  3 min pos   245,
 dipolmoment           0.000000      0.000000     -0.001557 electrons x Angstroem
 Tr[quadrupol]     -8929.791113

 energy correction for charged system         0.000000 eV
 dipol+quadrupol energy correction           -0.000000 eV
 added-field ion interaction         -0.022745 eV  (added to PSCEN)


 Free energy of the ion-electron system (eV)
  ---------------------------------------------------
  alpha Z        PSCENC =      1564.86372735
  Ewald energy   TEWEN  =    149058.23502799
  -Hartree energ DENC   =   -189516.11887420
  -exchange      EXHF   =         0.00000000
  -V(xc)+E(xc)   XCENC  =       421.33059966
  PAW double counting   =     47542.04298076   -48131.27617416
  entropy T*S    EENTRO =         0.00000000
  eigenvalues    EBANDS =     -1692.45654760
  atomic energy  EATOM  =     40210.28846851
  Solvation  Ediel_sol  =         0.00000000
  ---------------------------------------------------
  free energy    TOTEN  =      -543.09079169 eV

  energy without entropy =     -543.09079169  energy(sigma->0) =     -543.09079169


--------------------------------------------------------------------------------------------------------




--------------------------------------- Iteration      1(  11)  ---------------------------------------


    EDDIAG:  cpu time   19.3717: real time   19.3846
  RMM-DIIS:  cpu time  112.8613: real time  112.8676
    ORTHCH:  cpu time    5.2412: real time    5.2411
 BZINTS: Fermi energy: -0.494095;543.000000 electrons
         Band energy:***********;  BLOECHL correction: -0.031936
       DOS:  cpu time    0.1917: real time    0.1917
    --------------------------------------------
      LOOP:  cpu time  137.6659: real time  137.6850

 eigenvalue-minimisations  : 47083
 total energy-change (2. order) :-0.1098611E-01  (-0.1107937E-01)
 number of electron     543.0000219 magnetization     157.7336988
 augmentation part      543.0000219 magnetization     157.7336988

 DIPCOR: dipole corrections for dipol
 direction  3 min pos   245,
 dipolmoment           0.000000      0.000000     -0.001557 electrons x Angstroem
 Tr[quadrupol]     -8929.791113

 energy correction for charged system         0.000000 eV
 dipol+quadrupol energy correction           -0.000000 eV
 added-field ion interaction         -0.022745 eV  (added to PSCEN)


 Free energy of the ion-electron system (eV)
  ---------------------------------------------------
  alpha Z        PSCENC =      1564.86372735
  Ewald energy   TEWEN  =    149058.23502799
  -Hartree energ DENC   =   -189516.11887420
  -exchange      EXHF   =         0.00000000
  -V(xc)+E(xc)   XCENC  =       421.33059966
  PAW double counting   =     47542.04298076   -48131.27617416
  entropy T*S    EENTRO =         0.00000000
  eigenvalues    EBANDS =     -1692.46753371
  atomic energy  EATOM  =     40210.28846851
  Solvation  Ediel_sol  =         0.00000000
  ---------------------------------------------------
  free energy    TOTEN  =      -543.10177780 eV

  energy without entropy =     -543.10177780  energy(sigma->0) =     -543.10177780


--------------------------------------------------------------------------------------------------------




--------------------------------------- Iteration      1(  12)  ---------------------------------------


    EDDIAG:  cpu time   19.3639: real time   19.3770
  RMM-DIIS:  cpu time   97.1730: real time   97.1770
    ORTHCH:  cpu time    5.2387: real time    5.2387
 BZINTS: Fermi energy: -0.494537;543.000000 electrons
         Band energy:***********;  BLOECHL correction: -0.031816
       DOS:  cpu time    0.1827: real time    0.1827
    --------------------------------------------
      LOOP:  cpu time  121.9583: real time  121.9754

 eigenvalue-minimisations  : 40195
 total energy-change (2. order) :-0.7544127E-02  (-0.7568130E-02)
 number of electron     543.0000219 magnetization     157.7336988
 augmentation part      543.0000219 magnetization     157.7336988

 DIPCOR: dipole corrections for dipol
 direction  3 min pos   245,
 dipolmoment           0.000000      0.000000     -0.001557 electrons x Angstroem
 Tr[quadrupol]     -8929.791113

 energy correction for charged system         0.000000 eV
 dipol+quadrupol energy correction           -0.000000 eV
 added-field ion interaction         -0.022745 eV  (added to PSCEN)


 Free energy of the ion-electron system (eV)
  ---------------------------------------------------
  alpha Z        PSCENC =      1564.86372735
  Ewald energy   TEWEN  =    149058.23502799
  -Hartree energ DENC   =   -189516.11887420
  -exchange      EXHF   =         0.00000000
  -V(xc)+E(xc)   XCENC  =       421.33059966
  PAW double counting   =     47542.04298076   -48131.27617416
  entropy T*S    EENTRO =         0.00000000
  eigenvalues    EBANDS =     -1692.47507783
  atomic energy  EATOM  =     40210.28846851
  Solvation  Ediel_sol  =         0.00000000
  ---------------------------------------------------
  free energy    TOTEN  =      -543.10932193 eV

  energy without entropy =     -543.10932193  energy(sigma->0) =     -543.10932193


--------------------------------------------------------------------------------------------------------




--------------------------------------- Iteration      1(  13)  ---------------------------------------


    EDDIAG:  cpu time   19.3544: real time   19.3685
  RMM-DIIS:  cpu time   88.1734: real time   88.1775
    ORTHCH:  cpu time    5.2473: real time    5.2474
 BZINTS: Fermi energy: -0.494903;543.000000 electrons
         Band energy:***********;  BLOECHL correction: -0.031710
       DOS:  cpu time    0.1874: real time    0.1873
    --------------------------------------------
      LOOP:  cpu time  112.9624: real time  112.9808

 eigenvalue-minimisations  : 36244
 total energy-change (2. order) :-0.5282492E-02  (-0.5279071E-02)
 number of electron     543.0000219 magnetization     157.7336988
 augmentation part      543.0000219 magnetization     157.7336988

 DIPCOR: dipole corrections for dipol
 direction  3 min pos   245,
 dipolmoment           0.000000      0.000000     -0.001557 electrons x Angstroem
 Tr[quadrupol]     -8929.791113

 energy correction for charged system         0.000000 eV
 dipol+quadrupol energy correction           -0.000000 eV
 added-field ion interaction         -0.022745 eV  (added to PSCEN)


 Free energy of the ion-electron system (eV)
  ---------------------------------------------------
  alpha Z        PSCENC =      1564.86372735
  Ewald energy   TEWEN  =    149058.23502799
  -Hartree energ DENC   =   -189516.11887420
  -exchange      EXHF   =         0.00000000
  -V(xc)+E(xc)   XCENC  =       421.33059966
  PAW double counting   =     47542.04298076   -48131.27617416
  entropy T*S    EENTRO =         0.00000000
  eigenvalues    EBANDS =     -1692.48036032
  atomic energy  EATOM  =     40210.28846851
  Solvation  Ediel_sol  =         0.00000000
  ---------------------------------------------------
  free energy    TOTEN  =      -543.11460442 eV

  energy without entropy =     -543.11460442  energy(sigma->0) =     -543.11460442


--------------------------------------------------------------------------------------------------------




--------------------------------------- Iteration      1(  14)  ---------------------------------------


    EDDIAG:  cpu time   19.3754: real time   19.3887
  RMM-DIIS:  cpu time   83.9725: real time   83.9761
    ORTHCH:  cpu time    5.2450: real time    5.2451
 BZINTS: Fermi energy: -0.495197;543.000000 electrons
         Band energy:***********;  BLOECHL correction: -0.031624
       DOS:  cpu time    0.1917: real time    0.1917
    --------------------------------------------
      LOOP:  cpu time  108.7847: real time  108.8015

 eigenvalue-minimisations  : 34285
 total energy-change (2. order) :-0.3778759E-02  (-0.3769809E-02)
 number of electron     543.0000219 magnetization     157.7336988
 augmentation part      543.0000219 magnetization     157.7336988

 DIPCOR: dipole corrections for dipol
 direction  3 min pos   245,
 dipolmoment           0.000000      0.000000     -0.001557 electrons x Angstroem
 Tr[quadrupol]     -8929.791113

 energy correction for charged system         0.000000 eV
 dipol+quadrupol energy correction           -0.000000 eV
 added-field ion interaction         -0.022745 eV  (added to PSCEN)


 Free energy of the ion-electron system (eV)
  ---------------------------------------------------
  alpha Z        PSCENC =      1564.86372735
  Ewald energy   TEWEN  =    149058.23502799
  -Hartree energ DENC   =   -189516.11887420
  -exchange      EXHF   =         0.00000000
  -V(xc)+E(xc)   XCENC  =       421.33059966
  PAW double counting   =     47542.04298076   -48131.27617416
  entropy T*S    EENTRO =         0.00000000
  eigenvalues    EBANDS =     -1692.48413908
  atomic energy  EATOM  =     40210.28846851
  Solvation  Ediel_sol  =         0.00000000
  ---------------------------------------------------
  free energy    TOTEN  =      -543.11838318 eV

  energy without entropy =     -543.11838318  energy(sigma->0) =     -543.11838318


--------------------------------------------------------------------------------------------------------




--------------------------------------- Iteration      1(  15)  ---------------------------------------


    EDDIAG:  cpu time   19.3776: real time   19.3900
  RMM-DIIS:  cpu time   80.5702: real time   80.5733
    ORTHCH:  cpu time    5.2299: real time    5.2298
 BZINTS: Fermi energy: -0.495434;543.000000 electrons
         Band energy:***********;  BLOECHL correction: -0.031558
       DOS:  cpu time    0.1870: real time    0.1870
    --------------------------------------------
      LOOP:  cpu time  105.3647: real time  105.3802

 eigenvalue-minimisations  : 32664
 total energy-change (2. order) :-0.2731970E-02  (-0.2723217E-02)
 number of electron     543.0000219 magnetization     157.7336988
 augmentation part      543.0000219 magnetization     157.7336988

 DIPCOR: dipole corrections for dipol
 direction  3 min pos   245,
 dipolmoment           0.000000      0.000000     -0.001557 electrons x Angstroem
 Tr[quadrupol]     -8929.791113

 energy correction for charged system         0.000000 eV
 dipol+quadrupol energy correction           -0.000000 eV
 added-field ion interaction         -0.022745 eV  (added to PSCEN)


 Free energy of the ion-electron system (eV)
  ---------------------------------------------------
  alpha Z        PSCENC =      1564.86372735
  Ewald energy   TEWEN  =    149058.23502799
  -Hartree energ DENC   =   -189516.11887420
  -exchange      EXHF   =         0.00000000
  -V(xc)+E(xc)   XCENC  =       421.33059966
  PAW double counting   =     47542.04298076   -48131.27617416
  entropy T*S    EENTRO =         0.00000000
  eigenvalues    EBANDS =     -1692.48687105
  atomic energy  EATOM  =     40210.28846851
  Solvation  Ediel_sol  =         0.00000000
  ---------------------------------------------------
  free energy    TOTEN  =      -543.12111515 eV

  energy without entropy =     -543.12111515  energy(sigma->0) =     -543.12111515


--------------------------------------------------------------------------------------------------------




--------------------------------------- Iteration      1(  16)  ---------------------------------------


    EDDIAG:  cpu time   19.3875: real time   19.3999
  RMM-DIIS:  cpu time   76.2754: real time   76.2781
    ORTHCH:  cpu time    5.2411: real time    5.2413
 BZINTS: Fermi energy: -0.495622;543.000000 electrons
         Band energy:***********;  BLOECHL correction: -0.031505
       DOS:  cpu time    0.1824: real time    0.1824
    --------------------------------------------
      LOOP:  cpu time  101.0865: real time  101.1017

 eigenvalue-minimisations  : 30574
 total energy-change (2. order) :-0.2005924E-02  (-0.1999529E-02)
 number of electron     543.0000219 magnetization     157.7336988
 augmentation part      543.0000219 magnetization     157.7336988

 DIPCOR: dipole corrections for dipol
 direction  3 min pos   245,
 dipolmoment           0.000000      0.000000     -0.001557 electrons x Angstroem
 Tr[quadrupol]     -8929.791113

 energy correction for charged system         0.000000 eV
 dipol+quadrupol energy correction           -0.000000 eV
 added-field ion interaction         -0.022745 eV  (added to PSCEN)


 Free energy of the ion-electron system (eV)
  ---------------------------------------------------
  alpha Z        PSCENC =      1564.86372735
  Ewald energy   TEWEN  =    149058.23502799
  -Hartree energ DENC   =   -189516.11887420
  -exchange      EXHF   =         0.00000000
  -V(xc)+E(xc)   XCENC  =       421.33059966
  PAW double counting   =     47542.04298076   -48131.27617416
  entropy T*S    EENTRO =         0.00000000
  eigenvalues    EBANDS =     -1692.48887698
  atomic energy  EATOM  =     40210.28846851
  Solvation  Ediel_sol  =         0.00000000
  ---------------------------------------------------
  free energy    TOTEN  =      -543.12312107 eV

  energy without entropy =     -543.12312107  energy(sigma->0) =     -543.12312107


[...]
   -.257E-01 -.355E+00 0.192E+04   0.209E+00 0.214E+00 -.192E+04   0.393E-01 0.432E-01 -.352E+01   -.223E+00 0.114E+00 -.316E+01
   0.170E+01 -.549E+01 -.450E+03   -.179E+01 0.507E+01 0.449E+03   0.530E-01 0.196E+00 0.644E+00   0.453E-01 0.198E+00 0.659E-01
   0.610E-01 0.151E+00 0.754E+03   0.220E+00 -.346E+00 -.750E+03   -.341E-01 -.296E-01 -.401E+00   -.234E+00 0.175E+00 -.369E+01
   0.102E+03 0.477E+02 -.166E+04   -.104E+03 -.486E+02 0.165E+04   0.163E+01 0.119E+01 0.273E+01   -.354E+00 -.219E+00 0.151E+01
   0.371E+00 -.277E+00 0.192E+04   -.126E+00 0.154E+00 -.192E+04   -.460E-01 0.270E-01 -.348E+01   -.201E+00 0.980E-01 -.320E+01
   0.336E+01 -.935E+01 -.437E+03   -.261E+01 0.885E+01 0.437E+03   -.414E+00 0.345E-01 0.712E+00   -.359E+00 0.458E+00 -.140E-01
   -.147E+00 0.209E+01 0.753E+03   0.307E+00 -.232E+01 -.749E+03   0.700E-01 0.303E-01 -.400E+00   -.167E+00 0.130E+00 -.376E+01
   -.646E+02 -.443E+02 -.160E+04   0.657E+02 0.450E+02 0.159E+04   -.739E+00 -.936E+00 0.310E+01   -.323E+00 0.285E+00 0.147E+01
   0.710E-01 -.284E+00 0.192E+04   -.256E+00 0.137E+00 -.192E+04   0.250E-01 0.421E-01 -.349E+01   0.154E+00 0.109E+00 -.327E+01
   -.132E+01 -.683E+01 -.445E+03   0.125E+01 0.611E+01 0.444E+03   0.241E-01 0.256E+00 0.631E+00   0.491E-01 0.457E+00 0.257E-01
   0.114E+01 0.823E+00 0.756E+03   -.126E+01 -.927E+00 -.752E+03   -.768E-01 -.558E-01 -.437E+00   0.171E+00 0.142E+00 -.383E+01
   0.384E+02 0.273E+02 -.166E+04   -.394E+02 -.280E+02 0.166E+04   0.551E+00 0.384E+00 0.411E+01   0.359E+00 0.262E+00 0.159E+01
   -.435E+00 -.311E+00 0.193E+04   0.172E+00 0.124E+00 -.192E+04   -.167E-01 -.118E-01 -.341E+01   0.276E+00 0.196E+00 -.323E+01
   -.482E+01 -.342E+01 -.439E+03   0.466E+01 0.330E+01 0.438E+03   -.114E+00 -.802E-01 0.109E+01   0.264E+00 0.195E+00 -.892E-01
   -.198E+01 0.182E+01 0.753E+03   0.177E+01 -.211E+01 -.750E+03   0.441E-01 0.460E-01 -.445E+00   0.220E+00 0.179E+00 -.378E+01
   -.797E+02 0.632E+02 -.168E+04   0.807E+02 -.644E+02 0.167E+04   -.136E+01 0.135E+01 0.256E+01   0.374E+00 -.171E+00 0.152E+01
   0.300E+00 0.198E+00 0.192E+04   0.518E-01 0.586E-01 -.192E+04   -.686E-01 -.485E-01 -.354E+01   -.267E+00 -.197E+00 -.311E+01
   0.411E+00 0.194E+00 -.465E+03   -.345E+00 -.133E+00 0.465E+03   -.211E+00 -.149E+00 -.577E-01   0.139E+00 0.842E-01 0.431E+00
   0.165E+01 -.199E+01 0.751E+03   -.143E+01 0.187E+01 -.748E+03   0.272E-01 0.535E-01 -.360E+00   -.281E+00 0.114E+00 -.350E+01
   0.253E+02 -.118E+03 -.168E+04   -.259E+02 0.119E+03 0.168E+04   0.656E+00 -.183E+01 0.249E+01   -.872E-01 0.740E+00 0.134E+01
   0.196E+00 -.728E-01 0.192E+04   -.188E+00 0.707E-01 -.192E+04   0.180E-01 0.132E-01 -.350E+01   -.162E-01 -.777E-02 -.322E+01
   0.222E+01 -.303E+01 -.458E+03   -.220E+01 0.294E+01 0.456E+03   0.257E+00 -.157E+00 0.648E+00   -.264E+00 0.239E+00 0.585E+00
   0.209E+00 -.196E+01 0.752E+03   -.121E+00 0.185E+01 -.748E+03   -.548E-01 -.220E-01 -.513E+00   -.347E-01 0.149E+00 -.357E+01
   -.725E+01 -.265E+02 -.171E+04   0.870E+01 0.260E+02 0.170E+04   -.128E+01 -.319E+00 0.455E+01   -.160E+00 0.837E+00 0.148E+01
   -.145E+00 -.734E-01 0.192E+04   -.128E+00 0.159E+00 -.192E+04   -.201E-02 -.304E-01 -.359E+01   0.262E+00 -.546E-01 -.325E+01
   0.452E+01 0.258E+01 -.456E+03   -.426E+01 -.256E+01 0.456E+03   -.210E+00 -.202E+00 -.178E+00   -.724E-01 0.153E+00 0.320E+00
   0.101E+01 -.248E+01 0.753E+03   -.134E+01 0.239E+01 -.750E+03   0.589E-01 0.256E-01 -.445E+00   0.226E+00 0.140E+00 -.377E+01
   0.329E+02 -.962E+02 -.168E+04   -.337E+02 0.975E+02 0.167E+04   0.820E+00 -.174E+01 0.256E+01   -.379E-01 0.422E+00 0.152E+01
   -.343E+00 0.816E-01 0.192E+04   0.269E+00 0.149E+00 -.192E+04   0.545E-01 0.225E-01 -.352E+01   0.343E-01 -.259E+00 -.317E+01
   -.459E+01 0.325E+01 -.450E+03   0.417E+01 -.319E+01 0.449E+03   0.199E+00 -.175E-01 0.640E+00   0.201E+00 -.288E-01 0.909E-01
   -.220E+01 -.161E+01 0.752E+03   0.215E+01 0.159E+01 -.748E+03   -.267E-02 -.210E-02 -.553E+00   0.733E-01 0.429E-01 -.374E+01
   -.116E+02 -.823E+01 -.172E+04   0.130E+02 0.920E+01 0.171E+04   -.168E+01 -.119E+01 0.503E+01   0.327E+00 0.240E+00 0.139E+01
   0.785E+01 0.552E+01 -.171E+04   -.617E+01 -.432E+01 0.173E+04   -.135E+01 -.949E+00 -.249E+02   -.326E+00 -.250E+00 0.486E+00
   -.383E+02 0.338E+02 -.170E+04   0.388E+02 -.320E+02 0.172E+04   -.574E+00 -.120E+01 -.253E+02   0.268E-01 -.539E+00 0.856E+00
   -.236E+02 -.167E+02 -.170E+04   0.252E+02 0.178E+02 0.173E+04   -.158E+01 -.112E+01 -.247E+02   -.132E-01 -.585E-02 0.924E+00
   0.190E+02 -.473E+02 -.170E+04   -.172E+02 0.472E+02 0.173E+04   -.134E+01 -.139E+00 -.253E+02   -.480E+00 0.209E+00 0.863E+00
   -.111E+02 -.788E+01 -.165E+04   0.148E+02 0.105E+02 0.162E+04   -.335E+01 -.243E+01 0.209E+02   -.335E+00 -.239E+00 0.122E+01
   0.377E+01 0.278E+01 -.341E+03   -.416E+01 -.307E+01 0.349E+03   0.410E+00 0.303E+00 -.820E+01   -.273E-01 -.198E-01 0.176E+00
 -----------------------------------------------------------------------------------------------
   0.120E+02 0.858E+01 0.168E+03   -.169E-13 -.189E-12 0.352E-11   -.111E+02 -.787E+01 -.893E+02   -.957E+00 -.723E+00 -.783E+02
 
 
 POSITION                                       TOTAL-FORCE (eV/Angst)
 -----------------------------------------------------------------------------------
      1.40594      1.52230      2.00000         0.006547      0.008239      0.334551
      1.40558      1.50247      6.00700        -0.001754      0.010121     -0.039915
      2.23340      0.35210      4.02685        -0.023705     -0.017822     -0.337184
      2.14182      0.28647      8.02430        -0.014247     -0.009987      0.012920
      3.88832      1.52230      2.00000        -0.005337     -0.003666      0.316923
      3.89013      1.52301      6.00104        -0.007283     -0.003510     -0.037653
      4.71578      0.35210      4.02685         0.038748     -0.045765     -0.280222
      4.68098      0.33341      8.00008         0.048480     -0.021333     -0.041337
      6.37069      1.52230      2.00000         0.012506      0.014363      0.333498
      6.37075      1.51903      6.01932         0.013039     -0.012301     -0.003576
      7.19815      0.35210      4.02685        -0.040524      0.028557     -0.311310
      7.11385      0.27015      7.98453         0.034030     -0.008476      0.005315
      8.85307      1.52230      2.00000         0.000678     -0.002372      0.350161
      8.85654      1.52351      6.00614        -0.008679     -0.015122     -0.016333
      9.68053      0.35210      4.02685         0.032650     -0.048763     -0.197336
      9.65391      0.30617      8.00380         0.013046     -0.007538     -0.010713
      2.23340      3.86271      2.00000        -0.004195     -0.012697      0.377560
      2.24098      3.85404      6.01434        -0.032602     -0.014714     -0.029800
      3.06086      2.69251      4.02685        -0.029046      0.049963     -0.279488
      3.03315      2.66496      8.00036        -0.009095      0.055591     -0.044235
      4.71578      3.86271      2.00000         0.017660      0.006894      0.333138
      4.71331      3.86341      6.01883        -0.010705      0.015511      0.000882
      5.54324      2.69251      4.02685         0.003783      0.000132     -0.272231
      5.51793      2.67410      7.97118         0.025823      0.015756     -0.002362
      7.19815      3.86271      2.00000         0.009739      0.006470      0.358579
      7.20597      3.86794      6.04389        -0.015883     -0.011623     -0.020164
      8.02561      2.69251      4.02685        -0.042051      0.080838     -0.204156
      8.05658      2.64822      8.02436         0.025550      0.010316     -0.043576
      9.68053      3.86271      2.00000         0.001919     -0.006898      0.336804
      9.67560      3.86638      6.00438        -0.007026      0.007620     -0.010052
     10.50799      2.69251      4.02685         0.010992     -0.006389     -0.354025
     10.52085      2.69286      7.90106        -0.010496      0.017289     -0.012176
      3.06086      6.20311      2.00000        -0.000492      0.015944      0.301701
      3.05858      6.19345      6.00453         0.007253     -0.024724     -0.004826
      3.88832      5.03291      4.02685         0.013851     -0.048652     -0.312733
      3.78331      4.98028      7.98393        -0.009443      0.023985     -0.003132
      5.54324      6.20311      2.00000        -0.001868      0.001687      0.349632
      5.54551      6.20544      6.00584        -0.018446     -0.002811     -0.014633
      6.37069      5.03291      4.02685         0.063363     -0.068441     -0.205569
      6.33862      5.07570      8.02429         0.023042      0.022182     -0.042449
      8.02561      6.20311      2.00000        -0.005579      0.003900      0.336698
      8.02714      6.19677      6.00453         0.007539     -0.008362     -0.013077
      8.85307      5.03291      4.02685        -0.023548     -0.017420     -0.331606
      8.82436      5.01325      7.99420        -0.039403     -0.031601     -0.010598
     10.50799      6.20311      2.00000        -0.003274     -0.002345      0.306632
     10.50726      6.20237      5.99084        -0.007518     -0.003907     -0.023614
     11.33544      5.03291      4.02685         0.051706     -0.070782     -0.282136
     11.32435      4.99133      7.98088         0.020453     -0.018751     -0.007769
      3.88832      8.54352      2.00000         0.015725      0.010948      0.328173
      3.88540      8.54114      6.02207        -0.006761     -0.004781     -0.044450
      4.71578      7.37332      4.02685        -0.034985      0.046544     -0.198405
      4.66389      7.36201      8.00406        -0.006751      0.024480     -0.015606
      6.37069      8.54352      2.00000         0.009767      0.003554      0.334439
      6.35200      8.54903      6.00681         0.007366     -0.002482     -0.038056
      7.19815      7.37332      4.02685        -0.001661      0.011158     -0.355413
      7.20151      7.38422      7.90147         0.019513     -0.015177     -0.014764
      8.85307      8.54352      2.00000        -0.013155      0.000329      0.377734
      8.84732      8.55253      6.01438        -0.022685     -0.020440     -0.032445
      9.68053      7.37332      4.02685        -0.048734      0.071029     -0.282595
      9.63713      7.37672      7.98065        -0.008868      0.023386     -0.005125
     11.33544      8.54352      2.00000         0.014809     -0.005950      0.302054
     11.32573      8.54440      6.00479        -0.020665      0.015160     -0.008083
     12.16290      7.37332      4.02685         0.025765      0.018292     -0.318517
     12.15481      7.36766      7.92649         0.034204      0.023575     -0.015737
      3.41337      1.18538      9.08713         0.002910      0.003260     -0.026331
      8.36798      1.10201      9.08495        -0.039920      0.008304     -0.076202
     10.14790      5.94865      9.06451        -0.036839     -0.025417     -0.069574
      4.98336      5.88362      9.08445         0.001624     -0.034671     -0.064169
      6.75642      3.54957      9.32146         0.004359      0.002806      0.000821
      6.70561      3.51209     10.29413        -0.005220     -0.002485     -0.032758
 -----------------------------------------------------------------------------------
    total drift:                               -0.004089     -0.012610      0.429374


--------------------------------------------------------------------------------------------------------



  FREE ENERGIE OF THE ION-ELECTRON SYSTEM (eV)
  ---------------------------------------------------
  free  energy   TOTEN  =      -556.54721975 eV

  energy  without entropy=     -556.54721975  energy(sigma->0) =     -556.54721975
 


--------------------------------------------------------------------------------------------------------


    POTLOK:  cpu time    0.4433: real time    0.4949


--------------------------------------------------------------------------------------------------------


 stress matrix after NEB project (eV)
    -21.13660      2.87079      0.22618
      2.87079    -23.15702      0.19237
      0.22618      0.19237      7.40932
  FORCES: max atom, RMS     0.086426    0.030406
  FORCE total and by dimension    0.254394    0.076202
  Stress total and by dimension   32.473999   23.157017
     LOOP+:  cpu time 4907.3035: real time 4909.5470
    4ORBIT:  cpu time    0.0000: real time    0.0000
 


 total charge     
 
# of ion       s       p       d       tot
------------------------------------------
    1        0.463   0.370   6.188   7.020
    2        0.478   0.527   6.264   7.269
    3        0.475   0.514   6.257   7.246
    4        0.465   0.493   6.226   7.184
    5        0.465   0.369   6.184   7.019
    6        0.475   0.522   6.261   7.258
    7        0.474   0.511   6.260   7.245
    8        0.471   0.500   6.248   7.219
    9        0.463   0.370   6.188   7.021
   10        0.476   0.521   6.257   7.254
   11        0.473   0.512   6.249   7.235
   12        0.474   0.507   6.256   7.238
   13        0.464   0.370   6.186   7.020
   14        0.477   0.522   6.259   7.258
   15        0.473   0.510   6.255   7.238
   16        0.474   0.507   6.246   7.227
   17        0.464   0.367   6.188   7.020
   18        0.486   0.537   6.249   7.271
   19        0.474   0.511   6.260   7.245
   20        0.471   0.500   6.248   7.219
   21        0.463   0.370   6.188   7.021
   22        0.476   0.522   6.257   7.255
   23        0.472   0.509   6.248   7.229
   24        0.432   0.429   6.216   7.077
   25        0.464   0.368   6.191   7.023
   26        0.479   0.521   6.246   7.245
   27        0.471   0.510   6.251   7.232
   28        0.434   0.520   6.268   7.222
   29        0.463   0.370   6.189   7.022
   30        0.478   0.529   6.272   7.279
   31        0.474   0.511   6.249   7.233
   32        0.472   0.406   6.226   7.104
   33        0.463   0.369   6.183   7.015
   34        0.479   0.528   6.267   7.274
   35        0.473   0.512   6.249   7.235
   36        0.474   0.509   6.258   7.241
   37        0.464   0.370   6.186   7.020
   38        0.477   0.522   6.259   7.258
   39        0.471   0.510   6.251   7.232
   40        0.434   0.520   6.268   7.222
   41        0.463   0.370   6.189   7.022
   42        0.478   0.529   6.272   7.279
   43        0.474   0.512   6.255   7.242
   44        0.446   0.465   6.229   7.140
   45        0.465   0.369   6.181   7.016
   46        0.476   0.521   6.267   7.264
   47        0.473   0.513   6.254   7.239
   48        0.478   0.512   6.265   7.255
   49        0.465   0.367   6.189   7.021
   50        0.485   0.535   6.245   7.266
   51        0.473   0.510   6.255   7.238
   52        0.474   0.507   6.247   7.228
   53        0.463   0.370   6.188   7.020
   54        0.478   0.527   6.264   7.269
   55        0.474   0.511   6.249   7.233
   56        0.472   0.406   6.226   7.104
   57        0.464   0.367   6.188   7.020
   58        0.486   0.537   6.249   7.272
   59        0.473   0.513   6.253   7.239
   60        0.478   0.512   6.265   7.255
   61        0.463   0.369   6.183   7.015
   62        0.479   0.528   6.267   7.274
   63        0.474   0.512   6.245   7.231
   64        0.458   0.394   6.223   7.074
   65        1.578   3.370   0.000   4.948
   66        1.579   3.373   0.000   4.952
   67        1.577   3.367   0.000   4.944
   68        1.579   3.373   0.000   4.953
   69        1.548   3.558   0.000   5.105
   70        0.605   0.119   0.000   0.724
--------------------------------------------------
tot         38.522  47.358 399.104 484.985
 


 magnetization (x)
 
# of ion       s       p       d       tot
------------------------------------------
    1       -0.005  -0.008   2.699   2.686
    2       -0.016  -0.051   2.452   2.385
    3       -0.015  -0.054   2.497   2.429
    4       -0.005  -0.019   2.228   2.204
    5       -0.002  -0.009   2.720   2.709
    6       -0.018  -0.056   2.534   2.460
    7       -0.016  -0.057   2.460   2.387
    8       -0.001  -0.011   2.311   2.299
    9       -0.005  -0.008   2.706   2.693
   10       -0.013  -0.052   2.492   2.427
   11       -0.015  -0.055   2.523   2.453
   12       -0.006  -0.022   2.095   2.067
   13       -0.004  -0.010   2.718   2.704
   14       -0.015  -0.054   2.467   2.398
   15       -0.017  -0.058   2.445   2.370
   16       -0.000  -0.009   2.252   2.243
   17       -0.005  -0.008   2.697   2.684
   18       -0.010  -0.055   2.336   2.271
   19       -0.016  -0.057   2.460   2.386
   20       -0.001  -0.010   2.312   2.300
   21       -0.005  -0.008   2.706   2.693
   22       -0.013  -0.052   2.491   2.426
   23       -0.015  -0.056   2.488   2.417
   24       -0.008  -0.007   2.869   2.854
   25       -0.004  -0.008   2.693   2.680
   26       -0.010  -0.055   2.416   2.351
   27       -0.017  -0.057   2.475   2.401
   28       -0.004  -0.010   2.223   2.208
   29       -0.005  -0.008   2.707   2.694
   30       -0.015  -0.052   2.445   2.378
   31       -0.014  -0.055   2.491   2.422
   32       -0.006  -0.013   2.765   2.746
   33       -0.005  -0.007   2.712   2.700
   34       -0.015  -0.052   2.455   2.388
   35       -0.015  -0.055   2.523   2.453
   36       -0.006  -0.022   2.088   2.059
   37       -0.004  -0.010   2.718   2.704
   38       -0.015  -0.054   2.467   2.398
   39       -0.017  -0.057   2.475   2.401
   40       -0.004  -0.010   2.223   2.208
   41       -0.005  -0.008   2.707   2.694
   42       -0.015  -0.052   2.445   2.378
   43       -0.015  -0.055   2.511   2.441
   44       -0.005  -0.020   2.443   2.418
   45       -0.002  -0.007   2.726   2.717
   46       -0.016  -0.056   2.527   2.455
   47       -0.017  -0.057   2.458   2.384
   48       -0.002  -0.014   2.244   2.229
   49       -0.003  -0.008   2.712   2.700
   50       -0.011  -0.054   2.318   2.253
   51       -0.017  -0.058   2.445   2.370
   52       -0.000  -0.009   2.252   2.242
   53       -0.005  -0.008   2.699   2.686
   54       -0.016  -0.051   2.452   2.385
   55       -0.014  -0.055   2.491   2.421
   56       -0.006  -0.013   2.765   2.746
   57       -0.005  -0.008   2.697   2.684
   58       -0.010  -0.055   2.336   2.271
   59       -0.017  -0.057   2.458   2.385
   60       -0.002  -0.014   2.243   2.228
   61       -0.005  -0.007   2.712   2.700
   62       -0.015  -0.052   2.455   2.388
   63       -0.015  -0.055   2.491   2.422
   64       -0.005  -0.010   2.787   2.771
   65        0.003   0.023   0.000   0.026
   66        0.002  -0.006   0.000  -0.003
   67        0.003   0.020   0.000   0.024
   68        0.002  -0.006   0.000  -0.003
   69        0.010   0.061   0.000   0.071
   70        0.006   0.001   0.000   0.007
--------------------------------------------------
tot         -0.576  -2.003 160.204 157.625
 
 BZINTS: Fermi energy: -0.496444;543.000000 electrons
         Band energy:***********;  BLOECHL correction: -0.031343

 total amount of memory used by VASP MPI-rank0   242503. kBytes
=======================================================================

   base      :      30000. kBytes
   nonlr-proj:      13673. kBytes
   fftplans  :       6402. kBytes
   grid      :      17692. kBytes
   one-center:         93. kBytes
   wavefun   :     174643. kBytes
 
  
  
 General timing and accounting informations for this job:
 ========================================================
  
                  Total CPU time used (sec):     5028.690
                            User time (sec):     4747.390
                          System time (sec):      281.300
                         Elapsed time (sec):     5032.991
  
                   Maximum memory used (kb):      480092.
                   Average memory used (kb):           0.
  
                          Minor page faults:     85182742
                          Major page faults:           30
                 Voluntary context switches:         3560
