       N       E                     dE             d eps       ncg     rms          rms(c)
DAV:   1     0.478865613684E+04    0.47887E+04   -0.23969E+05  8220   0.147E+03
DAV:   2     0.178800849809E+02   -0.47708E+04   -0.44545E+04  8220   0.344E+02
DAV:   3    -0.458747068062E+03   -0.47663E+03   -0.41028E+03  8496   0.158E+02
DAV:   4    -0.480917006399E+03   -0.22170E+02   -0.21506E+02  8781   0.366E+01
DAV:   5    -0.481372025378E+03   -0.45502E+00   -0.45376E+00  9303   0.477E+00    0.834E+01
RMM:   6    -0.699664842868E+03   -0.21829E+03   -0.79818E+02  8231   0.796E+01    0.191E+02
RMM:   7    -0.650157664830E+03    0.49507E+02   -0.24421E+02  8237   0.404E+01    0.174E+02
RMM:   8    -0.593389400880E+03    0.56768E+02   -0.67936E+01  8252   0.187E+01    0.192E+02
RMM:   9    -0.395663612899E+03    0.19773E+03   -0.67015E+01  8281   0.210E+01    0.682E+01
RMM:  10    -0.477328960040E+03   -0.81665E+02   -0.10169E+02  8279   0.242E+01    0.131E+02
RMM:  11    -0.403881349722E+03    0.73448E+02   -0.70252E+01  8297   0.227E+01    0.770E+01
RMM:  12    -0.381183357470E+03    0.22698E+02   -0.25927E+01  8302   0.133E+01    0.486E+01
RMM:  13    -0.392888493178E+03   -0.11705E+02   -0.18787E+01  8296   0.112E+01    0.732E+01
RMM:  14    -0.381583167650E+03    0.11305E+02   -0.15987E+01  8289   0.972E+00    0.381E+01
RMM:  15    -0.380703893357E+03    0.87927E+00   -0.69177E+00  8297   0.668E+00    0.290E+01
RMM:  16    -0.388083275923E+03   -0.73794E+01   -0.62600E+00  8298   0.610E+00    0.320E+01
RMM:  17    -0.391052325865E+03   -0.29690E+01   -0.44311E+00  8289   0.535E+00    0.276E+01
RMM:  18    -0.394622379972E+03   -0.35701E+01   -0.32688E+00  8294   0.430E+00    0.286E+01
RMM:  19    -0.398795042710E+03   -0.41727E+01   -0.45989E+00  8278   0.476E+00    0.209E+01
RMM:  20    -0.404316916629E+03   -0.55219E+01   -0.37925E+00  8284   0.399E+00    0.200E+01
RMM:  21    -0.407954610444E+03   -0.36377E+01   -0.30357E+00  8272   0.296E+00    0.129E+01
RMM:  22    -0.410132855616E+03   -0.21782E+01   -0.13263E+00  8291   0.237E+00    0.158E+01
RMM:  23    -0.411903292877E+03   -0.17704E+01   -0.20365E+00  8263   0.247E+00    0.128E+01
RMM:  24    -0.412964542296E+03   -0.10612E+01   -0.12121E+00  8277   0.230E+00    0.952E+00
RMM:  25    -0.415656001265E+03   -0.26915E+01   -0.16949E+00  8262   0.199E+00    0.101E+01
RMM:  26    -0.416815892904E+03   -0.11599E+01   -0.93341E-01  8267   0.171E+00    0.834E+00
RMM:  27    -0.417623451284E+03   -0.80756E+00   -0.73432E-01  8263   0.122E+00    0.654E+00
RMM:  28    -0.418514870430E+03   -0.89142E+00   -0.47252E-01  8272   0.131E+00    0.791E+00
RMM:  29    -0.419124770495E+03   -0.60990E+00   -0.30300E-01  8249   0.931E-01    0.652E+00
RMM:  30    -0.419437723899E+03   -0.31295E+00   -0.17110E-01  8264   0.798E-01    0.599E+00
RMM:  31    -0.420442465006E+03   -0.10047E+01   -0.49372E-01  8250   0.106E+00    0.555E+00
RMM:  32    -0.420784090562E+03   -0.34163E+00   -0.19287E-01  8270   0.801E-01    0.389E+00
RMM:  33    -0.421203788477E+03   -0.41970E+00   -0.21047E-01  8246   0.713E-01    0.406E+00
RMM:  34    -0.421243950090E+03   -0.40162E-01   -0.73223E-02  8275   0.585E-01    0.322E+00
RMM:  35    -0.421310424950E+03   -0.66475E-01   -0.90485E-02  8246   0.523E-01    0.279E+00
RMM:  36    -0.421271726545E+03    0.38698E-01   -0.47620E-02  8271   0.489E-01    0.192E+00
RMM:  37    -0.421232001764E+03    0.39725E-01   -0.20150E-02  8273   0.297E-01    0.144E+00
RMM:  38    -0.421240072623E+03   -0.80709E-02   -0.79559E-03  8277   0.221E-01    0.111E+00
RMM:  39    -0.421284510432E+03   -0.44438E-01   -0.49403E-03  8275   0.155E-01    0.110E+00
RMM:  40    -0.421306670027E+03   -0.22160E-01   -0.32792E-03  8269   0.139E-01    0.863E-01
RMM:  41    -0.421371981606E+03   -0.65312E-01   -0.42253E-03  8273   0.135E-01    0.947E-01
RMM:  42    -0.421391697729E+03   -0.19716E-01   -0.21752E-03  8271   0.114E-01    0.794E-01
RMM:  43    -0.421423274132E+03   -0.31576E-01   -0.13840E-03  8261   0.773E-02    0.607E-01
RMM:  44    -0.421444565633E+03   -0.21292E-01   -0.83868E-04  8251   0.689E-02    0.518E-01
RMM:  45    -0.421482593613E+03   -0.38028E-01   -0.76073E-04  8268   0.530E-02    0.478E-01
RMM:  46    -0.421505499461E+03   -0.22906E-01   -0.59703E-04  8242   0.572E-02    0.511E-01
RMM:  47    -0.421555174611E+03   -0.49675E-01   -0.83783E-04  8248   0.511E-02    0.464E-01
RMM:  48    -0.421569922363E+03   -0.14748E-01   -0.36236E-04  8234   0.437E-02    0.439E-01
RMM:  49    -0.421592186644E+03   -0.22264E-01   -0.38562E-04  8231   0.379E-02    0.298E-01
RMM:  50    -0.421595151437E+03   -0.29648E-02   -0.14433E-04  8214   0.280E-02    0.247E-01
RMM:  51    -0.421597938024E+03   -0.27866E-02   -0.64672E-04  8230   0.572E-02    0.238E-01
RMM:  52    -0.421601926338E+03   -0.39883E-02   -0.40169E-04  8227   0.446E-02    0.198E-01
RMM:  53    -0.421604954980E+03   -0.30286E-02   -0.27779E-04  8224   0.346E-02    0.162E-01
RMM:  54    -0.421605729993E+03   -0.77501E-03   -0.11942E-04  8186   0.247E-02    0.145E-01
RMM:  55    -0.421606074035E+03   -0.34404E-03   -0.83749E-05  8055   0.219E-02    0.658E-02
RMM:  56    -0.421606933028E+03   -0.85899E-03   -0.11298E-04  8098   0.207E-02    0.960E-02
RMM:  57    -0.421607049836E+03   -0.11681E-03   -0.37450E-05  6543   0.153E-02    0.498E-02
RMM:  58    -0.421607059019E+03   -0.91837E-05   -0.20090E-05  5498   0.954E-03
   1 F= -.42160706E+03 E0= -.42162887E+03  d E =-.421607E+03  mag=   112.5416
       N       E                     dE             d eps       ncg     rms          rms(c)
DAV:   1    -0.420358341624E+03    0.12487E+01   -0.41945E+02  8262   0.301E+01    0.164E+01
RMM:   2    -0.452404547619E+03   -0.32046E+02   -0.39733E+01  8250   0.167E+01    0.758E+01
RMM:   3    -0.441621390252E+03    0.10783E+02   -0.12349E+01  8259   0.867E+00    0.594E+01
RMM:   4    -0.424786895252E+03    0.16834E+02   -0.59809E+00  8284   0.589E+00    0.201E+01
RMM:   5    -0.423566256200E+03    0.12206E+01   -0.25585E+00  8272   0.403E+00    0.138E+01
RMM:   6    -0.423063951216E+03    0.50230E+00   -0.10217E+00  8279   0.266E+00    0.643E+00
RMM:   7    -0.423000751498E+03    0.63200E-01   -0.17484E-01  8277   0.108E+00    0.450E+00
RMM:   8    -0.423000619910E+03    0.13159E-03   -0.10986E-01  8271   0.852E-01    0.409E+00
RMM:   9    -0.422992724269E+03    0.78956E-02   -0.11218E-01  8283   0.805E-01    0.374E+00
RMM:  10    -0.422945160413E+03    0.47564E-01   -0.82525E-02  8277   0.716E-01    0.196E+00
RMM:  11    -0.422940100486E+03    0.50599E-02   -0.37451E-02  8281   0.455E-01    0.201E+00
RMM:  12    -0.422919784784E+03    0.20316E-01   -0.18144E-02  8278   0.341E-01    0.866E-01
RMM:  13    -0.422912441631E+03    0.73432E-02   -0.10760E-02  8281   0.248E-01    0.121E+00
RMM:  14    -0.422904470466E+03    0.79712E-02   -0.54136E-03  8272   0.193E-01    0.538E-01
RMM:  15    -0.422907898317E+03   -0.34279E-02   -0.24017E-03  8269   0.116E-01    0.648E-01
RMM:  16    -0.422913771771E+03   -0.58735E-02   -0.16813E-03  8274   0.103E-01    0.408E-01
RMM:  17    -0.422920154944E+03   -0.63832E-02   -0.10057E-03  8255   0.740E-02    0.385E-01
RMM:  18    -0.422930424857E+03   -0.10270E-01   -0.56424E-04  8240   0.531E-02    0.192E-01
RMM:  19    -0.422939249936E+03   -0.88251E-02   -0.39979E-04  8240   0.422E-02    0.218E-01
RMM:  20    -0.422966567344E+03   -0.27317E-01   -0.12645E-03  8248   0.454E-02    0.179E-01
RMM:  21    -0.422974399503E+03   -0.78322E-02   -0.34415E-04  8236   0.343E-02    0.158E-01
RMM:  22    -0.422995574033E+03   -0.21175E-01   -0.13110E-03  8229   0.416E-02    0.130E-01
RMM:  23    -0.423000369066E+03   -0.47950E-02   -0.28161E-04  8225   0.278E-02    0.700E-02
RMM:  24    -0.423007925029E+03   -0.75560E-02   -0.46023E-04  8094   0.237E-02    0.914E-02
RMM:  25    -0.423009826463E+03   -0.19014E-02   -0.99790E-05  7380   0.164E-02    0.527E-02
RMM:  26    -0.423012563629E+03   -0.27372E-02   -0.13742E-04  7266   0.136E-02    0.455E-02
RMM:  27    -0.423013222406E+03   -0.65878E-03   -0.29504E-05  5820   0.983E-03    0.245E-02
RMM:  28    -0.423013878531E+03   -0.65612E-03   -0.25709E-05  5707   0.724E-03    0.268E-02
RMM:  29    -0.423014010322E+03   -0.13179E-03   -0.57229E-06  4807   0.533E-03    0.183E-02
RMM:  30    -0.423014269335E+03   -0.25901E-03   -0.93337E-06  5050   0.383E-03    0.162E-02
RMM:  31    -0.423014360242E+03   -0.90908E-04   -0.32918E-06  4709   0.371E-03    0.113E-02
RMM:  32    -0.423014500089E+03   -0.13985E-03   -0.39816E-06  4702   0.255E-03    0.802E-03
RMM:  33    -0.423014569568E+03   -0.69479E-04   -0.16573E-06  4526   0.240E-03    0.770E-03
RMM:  34    -0.423014739472E+03   -0.16990E-03   -0.48585E-06  4699   0.242E-03    0.551E-03
RMM:  35    -0.423014812646E+03   -0.73173E-04   -0.17725E-06  4472   0.207E-03    0.646E-03
RMM:  36    -0.423014931784E+03   -0.11914E-03   -0.32821E-06  4464   0.211E-03    0.446E-03
RMM:  37    -0.423014990642E+03   -0.58858E-04   -0.18271E-06  4436   0.186E-03    0.234E-02
RMM:  38    -0.423015008656E+03   -0.18014E-04   -0.47319E-07  3656   0.144E-03    0.295E-02
RMM:  39    -0.423015015153E+03   -0.64963E-05   -0.13803E-07  2406   0.975E-04
   2 F= -.42301502E+03 E0= -.42303560E+03  d E =-.140796E+01  mag=   113.2005
       N       E                     dE             d eps       ncg     rms          rms(c)
DAV:   1    -0.422130246058E+03    0.88476E+00   -0.17074E+02  8268   0.189E+01    0.990E+00
RMM:   2    -0.429588248832E+03   -0.74580E+01   -0.93003E+00  8261   0.846E+00    0.348E+01
RMM:   3    -0.429560424951E+03    0.27824E-01   -0.37389E+00  8263   0.469E+00    0.316E+01
RMM:   4    -0.424468176474E+03    0.50922E+01   -0.21162E+00  8283   0.344E+00    0.159E+01
RMM:   5    -0.423338352016E+03    0.11298E+01   -0.79889E-01  8265   0.237E+00    0.577E+00
RMM:   6    -0.423227600576E+03    0.11075E+00   -0.20643E-01  8267   0.116E+00    0.286E+00
RMM:   7    -0.423217841137E+03    0.97594E-02   -0.46679E-02  8273   0.569E-01    0.207E+00
RMM:   8    -0.423211418858E+03    0.64223E-02   -0.27425E-02  8270   0.429E-01    0.164E+00
RMM:   9    -0.423209780937E+03    0.16379E-02   -0.27255E-02  8277   0.382E-01    0.170E+00
RMM:  10    -0.423198283245E+03    0.11498E-01   -0.18585E-02  8277   0.343E-01    0.684E-01
RMM:  11    -0.423200685019E+03   -0.24018E-02   -0.67569E-03  8270   0.198E-01    0.987E-01
RMM:  12    -0.423198175521E+03    0.25095E-02   -0.48776E-03  8277   0.180E-01    0.392E-01
RMM:  13    -0.423200854450E+03   -0.26789E-02   -0.23331E-03  8266   0.117E-01    0.545E-01
RMM:  14    -0.423201552461E+03   -0.69801E-03   -0.12849E-03  8256   0.941E-02    0.174E-01
RMM:  15    -0.423203710464E+03   -0.21580E-02   -0.35254E-04  8232   0.446E-02    0.193E-01
RMM:  16    -0.423207984904E+03   -0.42744E-02   -0.22020E-04  8212   0.344E-02    0.122E-01
RMM:  17    -0.423209942505E+03   -0.19576E-02   -0.98994E-05  8143   0.232E-02    0.111E-01
RMM:  18    -0.423215078237E+03   -0.51357E-02   -0.12103E-04  7638   0.182E-02    0.909E-02
RMM:  19    -0.423216936027E+03   -0.18578E-02   -0.47990E-05  6764   0.149E-02    0.710E-02
RMM:  20    -0.423223792107E+03   -0.68561E-02   -0.23917E-04  7799   0.181E-02    0.852E-02
RMM:  21    -0.423226208111E+03   -0.24160E-02   -0.81944E-05  7118   0.148E-02    0.591E-02
RMM:  22    -0.423229756215E+03   -0.35481E-02   -0.15115E-04  7426   0.151E-02    0.621E-02
RMM:  23    -0.423231433399E+03   -0.16772E-02   -0.64295E-05  6633   0.122E-02    0.257E-02
RMM:  24    -0.423233297293E+03   -0.18639E-02   -0.82771E-05  6904   0.111E-02    0.422E-02
RMM:  25    -0.423234242262E+03   -0.94497E-03   -0.46432E-05  6153   0.936E-03    0.188E-02
RMM:  26    -0.423234573569E+03   -0.33131E-03   -0.16797E-05  5254   0.565E-03    0.207E-02
RMM:  27    -0.423234713685E+03   -0.14012E-03   -0.94709E-06  4850   0.537E-03    0.611E-03
RMM:  28    -0.423234756765E+03   -0.43080E-04   -0.33734E-06  4672   0.283E-03    0.842E-03
RMM:  29    -0.423234783993E+03   -0.27228E-04   -0.20755E-06  4574   0.265E-03    0.477E-03
RMM:  30    -0.423234798681E+03   -0.14688E-04   -0.92736E-07  3847   0.164E-03    0.464E-03
RMM:  31    -0.423234806711E+03   -0.80300E-05   -0.32262E-07  3419   0.131E-03
   3 F= -.42323481E+03 E0= -.42325842E+03  d E =-.162775E+01  mag=   113.4273
       N       E                     dE             d eps       ncg     rms          rms(c)
DAV:   1    -0.423026539516E+03    0.20826E+00   -0.82051E+01  8238   0.132E+01    0.611E+00
RMM:   2    -0.424102642710E+03   -0.10761E+01   -0.19422E+00  8266   0.392E+00    0.123E+01
RMM:   3    -0.424983049920E+03   -0.88041E+00   -0.16109E+00  8283   0.315E+00    0.156E+01
RMM:   4    -0.425278328948E+03   -0.29528E+00   -0.64808E-01  8284   0.187E+00    0.163E+01
RMM:   5    -0.423523833532E+03    0.17545E+01   -0.37883E-01  8272   0.154E+00    0.243E+00
RMM:   6    -0.423509499288E+03    0.14334E-01   -0.65004E-02  8270   0.617E-01    0.165E+00
RMM:   7    -0.423496587361E+03    0.12912E-01   -0.12932E-02  8282   0.298E-01    0.976E-01
RMM:   8    -0.423494768963E+03    0.18184E-02   -0.96501E-03  8272   0.249E-01    0.914E-01
RMM:   9    -0.423490955254E+03    0.38137E-02   -0.94909E-03  8282   0.228E-01    0.112E+00
RMM:  10    -0.423485317041E+03    0.56382E-02   -0.65042E-03  8274   0.202E-01    0.342E-01
RMM:  11    -0.423487500125E+03   -0.21831E-02   -0.24208E-03  8270   0.118E-01    0.566E-01
RMM:  12    -0.423487349938E+03    0.15019E-03   -0.12900E-03  8256   0.943E-02    0.144E-01
RMM:  13    -0.423489444961E+03   -0.20950E-02   -0.43607E-04  8240   0.492E-02    0.235E-01
RMM:  14    -0.423490925850E+03   -0.14809E-02   -0.20354E-04  8200   0.372E-02    0.754E-02
RMM:  15    -0.423492781125E+03   -0.18553E-02   -0.81808E-05  8010   0.205E-02    0.103E-01
RMM:  16    -0.423496793524E+03   -0.40124E-02   -0.92849E-05  7524   0.177E-02    0.699E-02
RMM:  17    -0.423498265832E+03   -0.14723E-02   -0.37776E-05  6259   0.137E-02    0.667E-02
RMM:  18    -0.423502406331E+03   -0.41405E-02   -0.10228E-04  7087   0.143E-02    0.516E-02
RMM:  19    -0.423503699204E+03   -0.12929E-02   -0.29576E-05  5707   0.107E-02    0.395E-02
RMM:  20    -0.423507113755E+03   -0.34146E-02   -0.11031E-04  7110   0.124E-02    0.471E-02
RMM:  21    -0.423508425884E+03   -0.13121E-02   -0.37444E-05  6135   0.101E-02    0.384E-02
RMM:  22    -0.423510706044E+03   -0.22802E-02   -0.96668E-05  6981   0.110E-02    0.339E-02
RMM:  23    -0.423511435106E+03   -0.72906E-03   -0.26205E-05  5690   0.797E-03    0.169E-02
RMM:  24    -0.423512167697E+03   -0.73259E-03   -0.42367E-05  6095   0.674E-03    0.193E-02
RMM:  25    -0.423512243493E+03   -0.75795E-04   -0.98191E-06  4911   0.500E-03    0.921E-03
RMM:  26    -0.423512245709E+03   -0.22163E-05   -0.52657E-06  4936   0.291E-03
   4 F= -.42351225E+03 E0= -.42353649E+03  d E =-.277439E+00  mag=   113.5334
       N       E                     dE             d eps       ncg     rms          rms(c)
DAV:   1    -0.421083823027E+03    0.24284E+01   -0.41350E+02  8220   0.304E+01    0.139E+01
RMM:   2    -0.426987271002E+03   -0.59034E+01   -0.13869E+01  8267   0.102E+01    0.307E+01
RMM:   3    -0.426290514922E+03    0.69676E+00   -0.92385E+00  8280   0.761E+00    0.212E+01
RMM:   4    -0.426320200171E+03   -0.29685E-01   -0.21976E+00  8272   0.390E+00    0.199E+01
RMM:   5    -0.424140391791E+03    0.21798E+01   -0.56202E-01  8274   0.180E+00    0.879E+00
RMM:   6    -0.423674956490E+03    0.46544E+00   -0.25866E-01  8283   0.120E+00    0.274E+00
RMM:   7    -0.423666032663E+03    0.89238E-02   -0.62676E-02  8277   0.620E-01    0.280E+00
RMM:   8    -0.423640727657E+03    0.25305E-01   -0.50002E-02  8278   0.576E-01    0.195E+00
RMM:   9    -0.423629861397E+03    0.10866E-01   -0.52760E-02  8281   0.516E-01    0.236E+00
RMM:  10    -0.423601633331E+03    0.28228E-01   -0.39249E-02  8282   0.487E-01    0.131E+00
RMM:  11    -0.423606746705E+03   -0.51134E-02   -0.16622E-02  8282   0.307E-01    0.143E+00
RMM:  12    -0.423601522700E+03    0.52240E-02   -0.96366E-03  8282   0.252E-01    0.424E-01
RMM:  13    -0.423611040909E+03   -0.95182E-02   -0.35807E-03  8280   0.143E-01    0.680E-01
RMM:  14    -0.423619762210E+03   -0.87213E-02   -0.16867E-03  8280   0.106E-01    0.221E-01
RMM:  15    -0.423626335176E+03   -0.65730E-02   -0.50779E-04  8241   0.529E-02    0.232E-01
RMM:  16    -0.423643860622E+03   -0.17525E-01   -0.37842E-04  8220   0.366E-02    0.151E-01
RMM:  17    -0.423653692069E+03   -0.98314E-02   -0.24077E-04  8223   0.325E-02    0.160E-01
RMM:  18    -0.423680659482E+03   -0.26967E-01   -0.64575E-04  8220   0.318E-02    0.132E-01
RMM:  19    -0.423689792168E+03   -0.91327E-02   -0.19928E-04  8220   0.253E-02    0.101E-01
RMM:  20    -0.423710844637E+03   -0.21052E-01   -0.61615E-04  8182   0.267E-02    0.106E-01
RMM:  21    -0.423718002589E+03   -0.71580E-02   -0.19505E-04  8006   0.210E-02    0.753E-02
RMM:  22    -0.423730218783E+03   -0.12216E-01   -0.61613E-04  8175   0.248E-02    0.746E-02
RMM:  23    -0.423732869821E+03   -0.26510E-02   -0.12383E-04  7457   0.165E-02    0.453E-02
RMM:  24    -0.423736830484E+03   -0.39607E-02   -0.23926E-04  7694   0.167E-02    0.813E-02
RMM:  25    -0.423737940564E+03   -0.11101E-02   -0.75073E-05  6717   0.123E-02    0.774E-02
RMM:  26    -0.423738219780E+03   -0.27922E-03   -0.30124E-05  5717   0.648E-03    0.418E-02
RMM:  27    -0.423738256525E+03   -0.36745E-04   -0.58319E-06  4748   0.488E-03    0.303E-02
RMM:  28    -0.423738290271E+03   -0.33746E-04   -0.84615E-06  5229   0.377E-03    0.156E-02
RMM:  29    -0.423738323506E+03   -0.33234E-04   -0.23317E-06  4634   0.322E-03    0.115E-02
RMM:  30    -0.423738436668E+03   -0.11316E-03   -0.38423E-06  4837   0.271E-03    0.577E-03
RMM:  31    -0.423738486455E+03   -0.49787E-04   -0.11558E-06  4436   0.214E-03    0.531E-03
RMM:  32    -0.423738598563E+03   -0.11211E-03   -0.18888E-06  4127   0.175E-03    0.365E-03
RMM:  33    -0.423738669900E+03   -0.71337E-04   -0.11140E-06  4248   0.157E-03    0.480E-03
RMM:  34    -0.423738787330E+03   -0.11743E-03   -0.21226E-06  4054   0.168E-03    0.225E-03
RMM:  35    -0.423738849697E+03   -0.62366E-04   -0.98676E-07  3240   0.132E-03    0.311E-03
RMM:  36    -0.423738900659E+03   -0.50963E-04   -0.66128E-07  2900   0.122E-03    0.143E-03
RMM:  37    -0.423738941279E+03   -0.40620E-04   -0.53571E-07  2410   0.110E-03    0.309E-03
RMM:  38    -0.423738966168E+03   -0.24889E-04   -0.29539E-07  2146   0.101E-03    0.312E-03
RMM:  39    -0.423738993790E+03   -0.27622E-04   -0.38286E-07  2262   0.102E-03    0.228E-03
RMM:  40    -0.423739006265E+03   -0.12474E-04   -0.17381E-07  1956   0.945E-04    0.153E-03
RMM:  41    -0.423739013194E+03   -0.69289E-05   -0.40097E-07  2672   0.106E-03
   5 F= -.42373901E+03 E0= -.42376358E+03  d E =-.504206E+00  mag=   113.7388
       N       E                     dE             d eps       ncg     rms          rms(c)
DAV:   1    -0.423557573865E+03    0.18143E+00   -0.60615E+01  8232   0.114E+01    0.450E+00
RMM:   2    -0.424081331151E+03   -0.52376E+00   -0.10584E+00  8277   0.284E+00    0.771E+00
RMM:   3    -0.424788869746E+03   -0.70754E+00   -0.81364E-01  8280   0.223E+00    0.127E+01
RMM:   4    -0.424661130362E+03    0.12774E+00   -0.33495E-01  8283   0.136E+00    0.115E+01
RMM:   5    -0.423849935822E+03    0.81119E+00   -0.20106E-01  8273   0.114E+00    0.227E+00
RMM:   6    -0.423832383770E+03    0.17552E-01   -0.36051E-02  8276   0.466E-01    0.106E+00
RMM:   7    -0.423828975970E+03    0.34078E-02   -0.87497E-03  8266   0.239E-01    0.108E+00
RMM:   8    -0.423824422975E+03    0.45530E-02   -0.65755E-03  8270   0.210E-01    0.682E-01
RMM:   9    -0.423822213771E+03    0.22092E-02   -0.58167E-03  8280   0.181E-01    0.853E-01
RMM:  10    -0.423818607259E+03    0.36065E-02   -0.44462E-03  8269   0.166E-01    0.337E-01
RMM:  11    -0.423821461273E+03   -0.28540E-02   -0.12048E-03  8260   0.835E-02    0.375E-01
RMM:  12    -0.423821884118E+03   -0.42284E-03   -0.56993E-04  8232   0.625E-02    0.925E-02
RMM:  13    -0.423824020340E+03   -0.21362E-02   -0.20744E-04  8222   0.338E-02    0.165E-01
RMM:  14    -0.423825621970E+03   -0.16016E-02   -0.10937E-04  8146   0.265E-02    0.579E-02
RMM:  15    -0.423826944758E+03   -0.13228E-02   -0.44911E-05  6936   0.156E-02    0.771E-02
RMM:  16    -0.423830477378E+03   -0.35326E-02   -0.71951E-05  6922   0.149E-02    0.558E-02
RMM:  17    -0.423831519944E+03   -0.10426E-02   -0.23016E-05  5146   0.109E-02    0.468E-02
RMM:  18    -0.423834148255E+03   -0.26283E-02   -0.50359E-05  6348   0.105E-02    0.344E-02
RMM:  19    -0.423835167690E+03   -0.10194E-02   -0.18436E-05  4970   0.863E-03    0.348E-02
RMM:  20    -0.423837743389E+03   -0.25757E-02   -0.67512E-05  6585   0.952E-03    0.315E-02
RMM:  21    -0.423838797968E+03   -0.10546E-02   -0.24379E-05  5365   0.808E-03    0.330E-02
RMM:  22    -0.423840510664E+03   -0.17127E-02   -0.60993E-05  6385   0.887E-03    0.139E-02
RMM:  23    -0.423840796799E+03   -0.28613E-03   -0.88907E-06  4777   0.512E-03    0.154E-02
RMM:  24    -0.423841097279E+03   -0.30048E-03   -0.17472E-05  5069   0.470E-03    0.125E-02
RMM:  25    -0.423841103066E+03   -0.57869E-05   -0.37740E-06  4710   0.307E-03
   6 F= -.42384110E+03 E0= -.42386549E+03  d E =-.102090E+00  mag=   113.7464
       N       E                     dE             d eps       ncg     rms          rms(c)
DAV:   1    -0.423607419274E+03    0.23368E+00   -0.55880E+01  8244   0.109E+01    0.431E+00
RMM:   2    -0.424091207171E+03   -0.48379E+00   -0.95246E-01  8276   0.269E+00    0.740E+00
RMM:   3    -0.424827950767E+03   -0.73674E+00   -0.74177E-01  8280   0.212E+00    0.127E+01
RMM:   4    -0.424599193277E+03    0.22876E+00   -0.31363E-01  8284   0.131E+00    0.110E+01
RMM:   5    -0.423876405264E+03    0.72279E+00   -0.19274E-01  8273   0.112E+00    0.216E+00
RMM:   6    -0.423860799038E+03    0.15606E-01   -0.32969E-02  8277   0.444E-01    0.101E+00
RMM:   7    -0.423857724597E+03    0.30744E-02   -0.79074E-03  8267   0.227E-01    0.103E+00
RMM:   8    -0.423853655108E+03    0.40695E-02   -0.58972E-03  8267   0.199E-01    0.648E-01
RMM:   9    -0.423851822629E+03    0.18325E-02   -0.51747E-03  8280   0.171E-01    0.808E-01
RMM:  10    -0.423848769127E+03    0.30535E-02   -0.38886E-03  8268   0.156E-01    0.322E-01
RMM:  11    -0.423851322852E+03   -0.25537E-02   -0.11459E-03  8258   0.811E-02    0.374E-01
RMM:  12    -0.423851639515E+03   -0.31666E-03   -0.54532E-04  8233   0.612E-02    0.902E-02
RMM:  13    -0.423853323569E+03   -0.16841E-02   -0.19568E-04  8222   0.330E-02    0.159E-01
RMM:  14    -0.423854830511E+03   -0.15069E-02   -0.99157E-05  8112   0.252E-02    0.601E-02
RMM:  15    -0.423855851443E+03   -0.10209E-02   -0.38923E-05  6638   0.148E-02    0.691E-02
RMM:  16    -0.423859080346E+03   -0.32289E-02   -0.68813E-05  6830   0.140E-02    0.551E-02
RMM:  17    -0.423859975635E+03   -0.89529E-03   -0.20946E-05  5042   0.106E-02    0.451E-02
RMM:  18    -0.423862323959E+03   -0.23483E-02   -0.47420E-05  6246   0.102E-02    0.331E-02
RMM:  19    -0.423863242485E+03   -0.91853E-03   -0.17350E-05  4928   0.850E-03    0.332E-02
RMM:  20    -0.423865542286E+03   -0.22998E-02   -0.57760E-05  6463   0.899E-03    0.320E-02
RMM:  21    -0.423866598217E+03   -0.10559E-02   -0.24035E-05  5310   0.809E-03    0.338E-02
RMM:  22    -0.423868204558E+03   -0.16063E-02   -0.55291E-05  6280   0.865E-03    0.146E-02
RMM:  23    -0.423868479692E+03   -0.27513E-03   -0.85448E-06  4762   0.514E-03    0.146E-02
RMM:  24    -0.423868793131E+03   -0.31344E-03   -0.17508E-05  5061   0.460E-03    0.117E-02
RMM:  25    -0.423868801223E+03   -0.80921E-05   -0.35417E-06  4701   0.307E-03
   7 F= -.42386880E+03 E0= -.42389307E+03  d E =-.129788E+00  mag=   113.7484
       N       E                     dE             d eps       ncg     rms          rms(c)
DAV:   1    -0.423748478728E+03    0.12031E+00   -0.34376E+01  8292   0.855E+00    0.333E+00
RMM:   2    -0.423974607427E+03   -0.22613E+00   -0.53051E-01  8278   0.204E+00    0.466E+00
RMM:   3    -0.424191100921E+03   -0.21649E+00   -0.43266E-01  8281   0.165E+00    0.761E+00
RMM:   4    -0.424139853013E+03    0.51248E-01   -0.15683E-01  8275   0.103E+00    0.586E+00
RMM:   5    -0.423910773947E+03    0.22908E+00   -0.38880E-02  8273   0.478E-01    0.140E+00
RMM:   6    -0.423903115648E+03    0.76583E-02   -0.12549E-02  8279   0.273E-01    0.728E-01
RMM:   7    -0.423900392374E+03    0.27233E-02   -0.35602E-03  8276   0.155E-01    0.661E-01
RMM:   8    -0.423898285025E+03    0.21073E-02   -0.28917E-03  8265   0.138E-01    0.411E-01
RMM:   9    -0.423898198579E+03    0.86446E-04   -0.29920E-03  8274   0.126E-01    0.626E-01
RMM:  10    -0.423896584004E+03    0.16146E-02   -0.20854E-03  8278   0.114E-01    0.175E-01
RMM:  11    -0.423898226386E+03   -0.16424E-02   -0.55976E-04  8241   0.560E-02    0.262E-01
RMM:  12    -0.423898694206E+03   -0.46782E-03   -0.25683E-04  8213   0.421E-02    0.559E-02
RMM:  13    -0.423899469132E+03   -0.77493E-03   -0.56738E-05  7519   0.177E-02    0.799E-02
RMM:  14    -0.423900928936E+03   -0.14598E-02   -0.39540E-05  6165   0.140E-02    0.440E-02
RMM:  15    -0.423901517141E+03   -0.58820E-03   -0.19346E-05  4904   0.109E-02    0.446E-02
RMM:  16    -0.423903501381E+03   -0.19842E-02   -0.47910E-05  6267   0.105E-02    0.421E-02
RMM:  17    -0.423904057419E+03   -0.55604E-03   -0.12923E-05  4775   0.815E-03    0.328E-02
RMM:  18    -0.423905388066E+03   -0.13306E-02   -0.24237E-05  5252   0.676E-03    0.214E-02
RMM:  19    -0.423906155209E+03   -0.76714E-03   -0.14060E-05  4858   0.693E-03    0.267E-02
RMM:  20    -0.423907783720E+03   -0.16285E-02   -0.44964E-05  6087   0.802E-03    0.190E-02
RMM:  21    -0.423908330540E+03   -0.54682E-03   -0.12307E-05  4835   0.577E-03    0.202E-02
RMM:  22    -0.423909120151E+03   -0.78961E-03   -0.29678E-05  5318   0.592E-03    0.876E-03
RMM:  23    -0.423909216654E+03   -0.96504E-04   -0.46740E-06  4697   0.352E-03    0.918E-03
RMM:  24    -0.423909264813E+03   -0.48158E-04   -0.66370E-06  4777   0.292E-03    0.612E-03
RMM:  25    -0.423909253994E+03    0.10819E-04   -0.13771E-06  4369   0.203E-03    0.552E-03
RMM:  26    -0.423909238064E+03    0.15930E-04   -0.93717E-07  3811   0.150E-03    0.329E-03
RMM:  27    -0.423909239246E+03   -0.11829E-05   -0.17976E-07  2648   0.111E-03
   8 F= -.42390924E+03 E0= -.42393421E+03  d E =-.404380E-01  mag=   113.7686
       N       E                     dE             d eps       ncg     rms          rms(c)
DAV:   1    -0.423880629975E+03    0.28608E-01   -0.71407E+00  8346   0.389E+00    0.150E+00
RMM:   2    -0.423928684549E+03   -0.48055E-01   -0.10125E-01  8279   0.886E-01    0.215E+00
RMM:   3    -0.424002672941E+03   -0.73988E-01   -0.87395E-02  8281   0.732E-01    0.394E+00
RMM:   4    -0.424006717286E+03   -0.40443E-02   -0.35106E-02  8278   0.450E-01    0.379E+00
RMM:   5    -0.423912707442E+03    0.94010E-01   -0.17381E-02  8269   0.332E-01    0.561E-01
RMM:   6    -0.423911726318E+03    0.98112E-03   -0.26647E-03  8280   0.124E-01    0.278E-01
RMM:   7    -0.423911044813E+03    0.68150E-03   -0.77249E-04  8246   0.684E-02    0.333E-01
RMM:   8    -0.423910333296E+03    0.71152E-03   -0.64148E-04  8266   0.649E-02    0.161E-01
RMM:   9    -0.423910230457E+03    0.10284E-03   -0.58596E-04  8239   0.564E-02    0.284E-01
RMM:  10    -0.423909822735E+03    0.40772E-03   -0.39232E-04  8235   0.499E-02    0.757E-02
RMM:  11    -0.423910087903E+03   -0.26517E-03   -0.10282E-04  8179   0.238E-02    0.110E-01
RMM:  12    -0.423910204503E+03   -0.11660E-03   -0.42947E-05  7094   0.173E-02    0.263E-02
RMM:  13    -0.423910360894E+03   -0.15639E-03   -0.87274E-06  4648   0.736E-03    0.310E-02
RMM:  14    -0.423910819058E+03   -0.45816E-03   -0.10154E-05  4759   0.683E-03    0.210E-02
RMM:  15    -0.423911006030E+03   -0.18697E-03   -0.47802E-06  4621   0.530E-03    0.194E-02
RMM:  16    -0.423911601908E+03   -0.59588E-03   -0.10116E-05  4803   0.472E-03    0.167E-02
RMM:  17    -0.423911783929E+03   -0.18202E-03   -0.30383E-06  4597   0.396E-03    0.138E-02
RMM:  18    -0.423912189261E+03   -0.40533E-03   -0.43741E-06  4654   0.300E-03    0.974E-03
RMM:  19    -0.423912490620E+03   -0.30136E-03   -0.35062E-06  4633   0.317E-03    0.131E-02
RMM:  20    -0.423913051780E+03   -0.56116E-03   -0.10858E-05  4802   0.382E-03    0.718E-03
RMM:  21    -0.423913275862E+03   -0.22408E-03   -0.49014E-06  4670   0.285E-03    0.992E-03
RMM:  22    -0.423913433124E+03   -0.15726E-03   -0.53572E-06  4741   0.293E-03    0.397E-03
RMM:  23    -0.423913478113E+03   -0.44988E-04   -0.25623E-06  4119   0.187E-03    0.473E-03
RMM:  24    -0.423913479486E+03   -0.13736E-05   -0.11522E-06  3905   0.161E-03
   9 F= -.42391348E+03 E0= -.42393873E+03  d E =-.446783E-01  mag=   113.7768
       N       E                     dE             d eps       ncg     rms          rms(c)
DAV:   1    -0.423891986260E+03    0.21492E-01   -0.56792E+00  8355   0.347E+00    0.147E+00
RMM:   2    -0.423960412115E+03   -0.68426E-01   -0.95112E-02  8273   0.858E-01    0.283E+00
RMM:   3    -0.424102262117E+03   -0.14185E+00   -0.77694E-02  8279   0.662E-01    0.519E+00
RMM:   4    -0.423973902240E+03    0.12836E+00   -0.44117E-02  8275   0.493E-01    0.306E+00
RMM:   5    -0.423921585877E+03    0.52316E-01   -0.21909E-02  8274   0.391E-01    0.589E-01
RMM:   6    -0.423920454692E+03    0.11312E-02   -0.27574E-03  8273   0.125E-01    0.287E-01
RMM:   7    -0.423920299629E+03    0.15506E-03   -0.78926E-04  8270   0.690E-02    0.320E-01
RMM:   8    -0.423919826544E+03    0.47309E-03   -0.58843E-04  8239   0.626E-02    0.163E-01
RMM:   9    -0.423919915861E+03   -0.89317E-04   -0.56435E-04  8264   0.563E-02    0.291E-01
RMM:  10    -0.423919450068E+03    0.46579E-03   -0.42816E-04  8228   0.524E-02    0.872E-02
RMM:  11    -0.423919478825E+03   -0.28757E-04   -0.12279E-04  8208   0.266E-02    0.117E-01
RMM:  12    -0.423919433560E+03    0.45265E-04   -0.47702E-05  7284   0.185E-02    0.289E-02
RMM:  13    -0.423919455533E+03   -0.21972E-04   -0.10804E-05  4531   0.854E-03    0.315E-02
RMM:  14    -0.423919500705E+03   -0.45172E-04   -0.53103E-06  4550   0.686E-03    0.158E-02
RMM:  15    -0.423919528483E+03   -0.27778E-04   -0.21413E-06  4420   0.399E-03    0.130E-02
RMM:  16    -0.423919639121E+03   -0.11064E-03   -0.20710E-06  4567   0.308E-03    0.127E-02
RMM:  17    -0.423919681300E+03   -0.42179E-04   -0.11475E-06  4455   0.291E-03    0.814E-03
RMM:  18    -0.423919763864E+03   -0.82564E-04   -0.76797E-07  4225   0.163E-03    0.630E-03
RMM:  19    -0.423919805668E+03   -0.41804E-04   -0.42130E-07  4121   0.151E-03    0.598E-03
RMM:  20    -0.423919940424E+03   -0.13476E-03   -0.13838E-06  3734   0.145E-03    0.478E-03
RMM:  21    -0.423920002189E+03   -0.61764E-04   -0.67728E-07  3998   0.141E-03    0.542E-03
RMM:  22    -0.423920178115E+03   -0.17593E-03   -0.41129E-06  4366   0.184E-03    0.348E-03
RMM:  23    -0.423920227796E+03   -0.49682E-04   -0.12547E-06  4103   0.145E-03    0.399E-03
RMM:  24    -0.423920272958E+03   -0.45161E-04   -0.15274E-06  3603   0.144E-03    0.165E-03
RMM:  25    -0.423920280547E+03   -0.75890E-05   -0.27445E-07  2526   0.102E-03
  10 F= -.42392028E+03 E0= -.42394561E+03  d E =-.680106E-02  mag=   113.7841
