 vasp.5.4.4.18Apr17-6-g9f103f2a35 (build Sep 06 2021 19:49:22) complex          
  
 executed on             LinuxIFC date 2022.01.03  15:05:56
 running on   72 total cores
 distrk:  each k-point on   72 cores,    1 groups
 distr:  one band on NCORES_PER_BAND=  24 cores,    3 groups


--------------------------------------------------------------------------------------------------------


 INCAR:
 POTCAR:    PAW_PBE Ni 02Aug2007                  
 POTCAR:    PAW_PBE Fe 06Sep2000                  

 ----------------------------------------------------------------------------- 
|                                                                             |
|           W    W    AA    RRRRR   N    N  II  N    N   GGGG   !!!           |
|           W    W   A  A   R    R  NN   N  II  NN   N  G    G  !!!           |
|           W    W  A    A  R    R  N N  N  II  N N  N  G       !!!           |
|           W WW W  AAAAAA  RRRRR   N  N N  II  N  N N  G  GGG   !            |
|           WW  WW  A    A  R   R   N   NN  II  N   NN  G    G                |
|           W    W  A    A  R    R  N    N  II  N    N   GGGG   !!!           |
|                                                                             |
|      For optimal performance we recommend to set                            |
|        NCORE= 4 - approx SQRT( number of cores)                             |
|      NCORE specifies how many cores store one orbital (NPAR=cpu/NCORE).     |
|      This setting can  greatly improve the performance of VASP for DFT.     |
|      The default,   NCORE=1            might be grossly inefficient         |
|      on modern multi-core architectures or massively parallel machines.     |
|      Do your own testing !!!!                                               |
|      Unfortunately you need to use the default for GW and RPA calculations. |
|      (for HF NCORE is supported but not extensively tested yet)             |
|                                                                             |
 ----------------------------------------------------------------------------- 

 POTCAR:    PAW_PBE Ni 02Aug2007                  
   VRHFIN =Ni:                                                                  
   LEXCH  = PE                                                                  
   EATOM  =  1077.6739 eV,   79.2068 Ry                                         
                                                                                
   TITEL  = PAW_PBE Ni 02Aug2007                                                
   LULTRA =        F    use ultrasoft PP ?                                      
   IUNSCR =        1    unscreen: 0-lin 1-nonlin 2-no                           
   RPACOR =    2.000    partial core radius                                     
   POMASS =   58.690; ZVAL   =   10.000    mass and valenz                      
   RCORE  =    2.300    outmost cutoff radius                                   
   RWIGS  =    2.430; RWIGS  =    1.286    wigner-seitz radius (au A)           
   ENMAX  =  269.532; ENMIN  =  202.149 eV                                      
   RCLOC  =    1.201    cutoff for local pot                                    
   LCOR   =        T    correct aug charges                                     
   LPAW   =        T    paw PP                                                  
   EAUG   =  544.565                                                            
   DEXC   =    0.000                                                            
   RMAX   =    2.357    core radius for proj-oper                               
   RAUG   =    1.300    factor for augmentation sphere                          
   RDEP   =    2.390    radius for radial grids                                 
   RDEPT  =    1.838    core radius for aug-charge                              
                                                                                
   Atomic configuration                                                         
    9 entries                                                                   
     n  l   j            E        occ.                                          
     1  0  0.50     -8206.4253   2.0000                                         
     2  0  0.50      -976.1748   2.0000                                         
     2  1  1.50      -839.0571   6.0000                                         
     3  0  0.50      -105.9991   2.0000                                         
     3  1  1.50       -66.4603   6.0000                                         
     3  2  2.50        -4.6458   9.0000                                         
     4  0  0.50        -4.4926   1.0000                                         
     4  1  1.50        -4.0817   0.0000                                         
     4  3  2.50        -1.3606   0.0000                                         
   Description                                                                  
     l       E           TYP  RCUT    TYP  RCUT                                 
     2     -4.6457903     23  2.300                                             
     2     -6.0063729     23  2.300                                             
     0     -4.4925590     23  2.300                                             
     0      5.0102601     23  2.300                                             
     1     -2.7211652     23  2.300                                             
     1     16.5183231     23  2.300                                             
  local pseudopotential read in
  partial core-charges read in
  partial kinetic energy density read in
  atomic valenz-charges read in
  non local Contribution for L=           2  read in
    real space projection operators read in
  non local Contribution for L=           2  read in
    real space projection operators read in
  non local Contribution for L=           0  read in
    real space projection operators read in
  non local Contribution for L=           0  read in
    real space projection operators read in
  non local Contribution for L=           1  read in
    real space projection operators read in
  non local Contribution for L=           1  read in
    real space projection operators read in
    PAW grid and wavefunctions read in
 
   number of l-projection  operators is LMAX  =           6
   number of lm-projection operators is LMMAX =          18
 
 POTCAR:    PAW_PBE Fe 06Sep2000                  
   VRHFIN =Fe:  d7 s1                                                           
   LEXCH  = PE                                                                  
   EATOM  =   594.3153 eV,   43.6809 Ry                                         
                                                                                
   TITEL  = PAW_PBE Fe 06Sep2000                                                
   LULTRA =        F    use ultrasoft PP ?                                      
   IUNSCR =        1    unscreen: 0-lin 1-nonlin 2-no                           
   RPACOR =    2.000    partial core radius                                     
   POMASS =   55.847; ZVAL   =    8.000    mass and valenz                      
   RCORE  =    2.300    outmost cutoff radius                                   
   RWIGS  =    2.460; RWIGS  =    1.302    wigner-seitz radius (au A)           
   ENMAX  =  267.882; ENMIN  =  200.911 eV                                      
   RCLOC  =    1.701    cutoff for local pot                                    
   LCOR   =        T    correct aug charges                                     
   LPAW   =        T    paw PP                                                  
   EAUG   =  511.368                                                            
   DEXC   =    0.000                                                            
   RMAX   =    2.356    core radius for proj-oper                               
   RAUG   =    1.300    factor for augmentation sphere                          
   RDEP   =    2.442    radius for radial grids                                 
   RDEPT  =    1.890    core radius for aug-charge                              
                                                                                
   Atomic configuration                                                         
    9 entries                                                                   
     n  l   j            E        occ.                                          
     1  0  0.50     -6993.8440   2.0000                                         
     2  0  0.50      -814.6047   2.0000                                         
     2  1  1.50      -693.3689   6.0000                                         
     3  0  0.50       -89.4732   2.0000                                         
     3  1  1.50       -55.6373   6.0000                                         
     3  2  2.50        -3.8151   7.0000                                         
     4  0  0.50        -4.2551   1.0000                                         
     4  1  1.50        -3.4015   0.0000                                         
     4  3  2.50        -1.3606   0.0000                                         
   Description                                                                  
     l       E           TYP  RCUT    TYP  RCUT                                 
     2     -3.8151135     23  2.300                                             
     2     -5.1756961     23  2.300                                             
     0     -4.2550963     23  2.300                                             
     0      7.2035603     23  2.300                                             
     1     -2.7211652     23  2.300                                             
     1     18.4316424     23  2.300                                             
  local pseudopotential read in
  partial core-charges read in
  partial kinetic energy density read in
  atomic valenz-charges read in
  non local Contribution for L=           2  read in
    real space projection operators read in
  non local Contribution for L=           2  read in
    real space projection operators read in
  non local Contribution for L=           0  read in
    real space projection operators read in
  non local Contribution for L=           0  read in
    real space projection operators read in
  non local Contribution for L=           1  read in
    real space projection operators read in
  non local Contribution for L=           1  read in
    real space projection operators read in
    PAW grid and wavefunctions read in
 
   number of l-projection  operators is LMAX  =           6
   number of lm-projection operators is LMMAX =          18
 
 Optimization of the real space projectors (new method)

 maximal supplied QI-value         = 16.25
 optimisation between [QCUT,QGAM] = [ 11.54, 23.24] = [ 37.28,151.24] Ry 
 Optimized for a Real-space Cutoff    1.45 Angstroem

   l    n(q)    QCUT    max X(q) W(low)/X(q) W(high)/X(q)  e(spline) 
   2      9    11.539    60.317    0.19E-03    0.47E-04    0.16E-06
   2      9    11.539    55.921    0.19E-03    0.48E-04    0.16E-06
   0     10    11.539    51.690    0.80E-04    0.50E-04    0.24E-06
   0     10    11.539    30.015    0.73E-04    0.45E-04    0.22E-06
   1     10    11.539    18.849    0.87E-04    0.16E-03    0.71E-07
   1     10    11.539    14.624    0.73E-04    0.13E-03    0.64E-07
 Optimization of the real space projectors (new method)

 maximal supplied QI-value         = 16.25
 optimisation between [QCUT,QGAM] = [ 11.54, 23.24] = [ 37.28,151.24] Ry 
 Optimized for a Real-space Cutoff    1.53 Angstroem

   l    n(q)    QCUT    max X(q) W(low)/X(q) W(high)/X(q)  e(spline) 
   2     10    11.539    80.901    0.11E-03    0.14E-03    0.21E-06
   2     10    11.539    75.754    0.11E-03    0.14E-03    0.22E-06
   0     11    11.539    58.752    0.52E-04    0.18E-04    0.33E-06
   0     11    11.539    30.679    0.44E-04    0.16E-04    0.30E-06
   1     10    11.539    17.977    0.53E-04    0.29E-04    0.13E-06
   1     10    11.539    13.559    0.44E-04    0.25E-04    0.11E-06
  PAW_PBE Ni 02Aug2007                  :
 energy of atom  1       EATOM=-1077.6739
 kinetic energy error for atom=    0.0030 (will be added to EATOM!!)
  PAW_PBE Fe 06Sep2000                  :
 energy of atom  2       EATOM= -594.3153
 kinetic energy error for atom=    0.0026 (will be added to EATOM!!)
 
 
 POSCAR: POSCAR                                  
  positions in direct lattice
  velocities in cartesian coordinates
 exchange correlation table for  LEXCH =        8
   RHO(1)=    0.500       N(1)  =     2000
   RHO(2)=  100.500       N(2)  =     4000
 


--------------------------------------------------------------------------------------------------------


 ion  position               nearest neighbor table
   1  0.002  0.002  0.285-  32 2.40  57 2.43  63 2.45  29 2.45  34 2.45  37 2.47  30 2.49   4 2.50
                             2 2.54   5 2.55  21 2.56  24 2.59
   2  0.253  0.001  0.287-  59 2.41  57 2.45  34 2.45   7 2.46  27 2.48   9 2.48   3 2.52  21 2.53
                             5 2.54   1 2.54  33 2.58  46 2.60
   3  0.501  0.997  0.287-  36 2.36  59 2.38  61 2.39  28 2.42  12 2.46   9 2.50  46 2.50  47 2.52
                             2 2.52   8 2.54  30 2.55  33 2.57
   4  0.002  0.250  0.286-  32 2.37  40 2.39  20 2.45  37 2.46  44 2.46  11 2.49   1 2.50  13 2.53
                             5 2.54   8 2.54  30 2.58  38 2.58
   5  0.255  0.254  0.287-  32 2.46  41 2.46  44 2.46   7 2.46  43 2.46  17 2.46  34 2.47   4 2.54
                             2 2.54   1 2.55  38 2.56  33 2.57
   6  0.334  0.165  0.096-  42 2.50  15 2.51   9 2.51  58 2.52  34 2.52  17 2.52  35 2.54  56 2.54
                            31 2.54
   7  0.330  0.166  0.381-   2 2.46   5 2.46  36 2.47  16 2.53  33 2.54  59 2.55  32 2.55  57 2.56
                            43 2.62
   8  0.750  0.249  0.287-  36 2.43  45 2.45  11 2.45  12 2.45  33 2.46  20 2.47  19 2.48   3 2.54
                             4 2.54  14 2.55  13 2.55  30 2.61
   9  0.418  0.084  0.193-   2 2.48  58 2.49  34 2.49   3 2.50   6 2.51  33 2.51  17 2.51  12 2.52
                            28 2.53  27 2.53  35 2.53  45 2.56
  10  0.832  0.166  0.098-  37 2.48  39 2.48  35 2.49  12 2.50  60 2.51  18 2.52  20 2.52  31 2.54
                            62 2.55
  11  0.832  0.164  0.380-   8 2.45  63 2.48  32 2.48   4 2.49  30 2.50  61 2.52  19 2.56  40 2.58
                            36 2.61
  12  0.668  0.085  0.194-   8 2.45   3 2.46  60 2.49  30 2.50  10 2.50  37 2.51  45 2.51   9 2.52
                            20 2.53  28 2.54  35 2.54  64 2.54
  13  0.004  0.501  0.289-  40 2.44  50 2.44  23 2.45  19 2.47  20 2.49  21 2.51  46 2.51  38 2.51
                             4 2.53  26 2.53   8 2.55  14 2.57
  14  0.749  0.501  0.288-  16 2.44  33 2.45  19 2.46  45 2.46  55 2.48  26 2.48  24 2.49  54 2.49
                            21 2.54   8 2.55  41 2.56  13 2.57
  15  0.583  0.413  0.097-  42 2.47  35 2.49  53 2.49  17 2.49  18 2.50   6 2.51  45 2.54  55 2.55
                            51 2.56
  16  0.581  0.418  0.380-  41 2.43  33 2.43  14 2.44  52 2.51   7 2.53  43 2.54  19 2.54  36 2.55
                            54 2.67
  17  0.420  0.333  0.193-   5 2.46  42 2.48  15 2.49  33 2.50   9 2.51  41 2.51  34 2.52  55 2.52
                             6 2.52  44 2.53  25 2.54  45 2.54
  18  0.831  0.415  0.098-  39 2.45  53 2.47  35 2.47  45 2.47  15 2.50  20 2.51  10 2.52  26 2.52
                            22 2.53
  19  0.833  0.418  0.381-  14 2.46  13 2.47   8 2.48  16 2.54  11 2.56  23 2.57  36 2.62  54 2.62
                            40 2.68
  20  0.919  0.335  0.194-   4 2.45  39 2.47   8 2.47  45 2.49  13 2.49  37 2.51  18 2.51  50 2.51
                            10 2.52  12 2.53  26 2.54  44 2.54
  21  0.004  0.750  0.288-  57 2.38  54 2.38  23 2.46  26 2.46  27 2.47  29 2.48  13 2.51   2 2.53
                            14 2.54  46 2.56   1 2.56  24 2.59
  22  0.082  0.666  0.097-  39 2.49  53 2.50  56 2.51  27 2.52  26 2.52  50 2.53  18 2.53  58 2.54
                            48 2.54
  23  0.089  0.670  0.381-  46 2.44  13 2.45  21 2.46  57 2.51  59 2.52  49 2.53  54 2.54  19 2.57
                            40 2.64
  24  0.746  0.746  0.287-  54 2.40  63 2.41  52 2.42  64 2.44  55 2.44  30 2.46  47 2.49  14 2.49
                            29 2.50  41 2.50   1 2.59  21 2.59
  25  0.417  0.584  0.195-  41 2.45  38 2.45  47 2.48  44 2.49  48 2.49  55 2.52  28 2.52  64 2.53
                            17 2.54  42 2.55  51 2.55  50 2.57
  26  0.916  0.585  0.194-  21 2.46  14 2.48  45 2.48  29 2.48  53 2.50  55 2.50  50 2.51  22 2.52
                            18 2.52  13 2.53  27 2.53  20 2.54
  27  0.167  0.835  0.193-  21 2.47   2 2.48  29 2.48  34 2.49  58 2.49  50 2.50  22 2.52   9 2.53
                            26 2.53  28 2.54  56 2.54  46 2.58
  28  0.417  0.833  0.195-   3 2.42  46 2.46  47 2.50  60 2.51  50 2.52  58 2.52  25 2.52   9 2.53
                            48 2.53  12 2.54  27 2.54  64 2.54
  29  0.920  0.833  0.194-   1 2.45  21 2.48  27 2.48  26 2.48  24 2.50  55 2.53  34 2.54  62 2.54
                            64 2.54  56 2.55  53 2.57  37 2.57
  30  0.750  0.991  0.287-  63 2.32  61 2.37  64 2.39  24 2.46  37 2.48   1 2.49  47 2.49  12 2.50
                            11 2.50   3 2.55   4 2.58   8 2.61
  31  0.085  0.169  0.094-  42 2.53  10 2.54  39 2.54   6 2.54  62 2.55  56 2.56  37 2.56  44 2.59
                            34 2.61
  32  0.078  0.165  0.376-   4 2.37   1 2.40  40 2.41   5 2.46  11 2.48  63 2.51   7 2.55  57 2.55
                            43 2.62
  33  0.510  0.255  0.287-  36 2.32  16 2.43  45 2.44  14 2.45   8 2.46  17 2.50   9 2.51   7 2.54
                            41 2.55   5 2.57   3 2.57   2 2.58
  34  0.171  0.083  0.194-   1 2.45   2 2.45   5 2.47  27 2.49   9 2.49  17 2.52   6 2.52  29 2.54
                            44 2.57  56 2.58  37 2.58  31 2.61
  35  0.588  0.169  0.096-  18 2.47  10 2.49  15 2.49  60 2.51   9 2.53  12 2.54   6 2.54  45 2.55
                            58 2.56
  36  0.572  0.161  0.375-  33 2.32   3 2.36  59 2.40   8 2.43   7 2.47  16 2.55  61 2.59  11 2.61
                            19 2.62
  37  0.917  0.086  0.193-   4 2.46   1 2.47  10 2.48  30 2.48  20 2.51  12 2.51  64 2.53  62 2.54
                            44 2.55  31 2.56  29 2.57  34 2.58
  38  0.255  0.507  0.289-  40 2.34  43 2.35  49 2.36  46 2.41  25 2.45  47 2.45  41 2.46  50 2.48
                            44 2.51  13 2.51   5 2.56   4 2.58
  39  0.074  0.415  0.097-  18 2.45  20 2.47  10 2.48  22 2.49  31 2.54  48 2.55  44 2.56  50 2.58
                            42 2.67
  40  0.094  0.411  0.376-  38 2.34  43 2.35   4 2.39  32 2.41  13 2.44  49 2.55  11 2.58  23 2.64
                            19 2.68
  41  0.495  0.500  0.289-  52 2.36  43 2.37  16 2.43  25 2.45   5 2.46  38 2.46  47 2.48  24 2.50
                            17 2.51  55 2.52  33 2.55  14 2.56
  42  0.339  0.415  0.097-  15 2.47  17 2.48   6 2.50  51 2.52  31 2.53  48 2.54  44 2.54  25 2.55
                            39 2.67
  43  0.334  0.427  0.378-  40 2.35  38 2.35  41 2.37  52 2.41  49 2.43   5 2.46  16 2.54   7 2.62
                            32 2.62
  44  0.171  0.337  0.194-   4 2.46   5 2.46  25 2.49  38 2.51  17 2.53  20 2.54  42 2.54  50 2.55
                            37 2.55  39 2.56  34 2.57  31 2.59
  45  0.673  0.336  0.195-  33 2.44   8 2.45  14 2.46  18 2.47  26 2.48  20 2.49  12 2.51  55 2.53
                            15 2.54  17 2.54  35 2.55   9 2.56
  46  0.256  0.746  0.290-  49 2.33  59 2.40  38 2.41  50 2.44  23 2.44  28 2.46  47 2.46   3 2.50
                            13 2.51  21 2.56  27 2.58   2 2.60
  47  0.501  0.748  0.290-  52 2.31  61 2.32  49 2.33  38 2.45  46 2.46  41 2.48  25 2.48  24 2.49
                            30 2.49  64 2.49  28 2.50   3 2.52
  48  0.332  0.663  0.099-  25 2.49  50 2.52  28 2.53  51 2.54  42 2.54  22 2.54  58 2.55  39 2.55
                            60 2.56
  49  0.340  0.671  0.377-  46 2.33  47 2.33  38 2.36  52 2.41  43 2.43  61 2.46  59 2.51  23 2.53
                            40 2.55
  50  0.165  0.586  0.196-  13 2.44  46 2.44  38 2.48  27 2.50  26 2.51  20 2.51  28 2.52  48 2.52
                            22 2.53  44 2.55  25 2.57  39 2.58
  51  0.586  0.668  0.097-  62 2.50  55 2.52  42 2.52  53 2.52  48 2.54  64 2.54  60 2.55  25 2.55
                            15 2.56
  52  0.575  0.664  0.377-  47 2.31  41 2.36  49 2.41  43 2.41  24 2.42  61 2.46  16 2.51  63 2.56
                            54 2.62
  53  0.831  0.659  0.097-  18 2.47  15 2.49  26 2.50  22 2.50  55 2.52  51 2.52  56 2.56  62 2.57
                            29 2.57
  54  0.844  0.683  0.378-  57 2.34  21 2.38  24 2.40  63 2.45  14 2.49  23 2.54  52 2.62  19 2.62
                            16 2.67
  55  0.668  0.584  0.194-  24 2.44  14 2.48  26 2.50  64 2.51  53 2.52  17 2.52  51 2.52  41 2.52
                            25 2.52  29 2.53  45 2.53  15 2.55
  56  0.082  0.914  0.095-  62 2.51  22 2.51  58 2.53  27 2.54   6 2.54  29 2.55  53 2.56  31 2.56
                            34 2.58
  57  0.078  0.912  0.377-  54 2.34  21 2.38   1 2.43   2 2.45  23 2.51  63 2.55  32 2.55   7 2.56
                            59 2.61
  58  0.334  0.916  0.098-   9 2.49  27 2.49  60 2.49   6 2.52  28 2.52  56 2.53  22 2.54  48 2.55
                            35 2.56
  59  0.339  0.919  0.377-   3 2.38  46 2.40  36 2.40   2 2.41  49 2.51  23 2.52  61 2.53   7 2.55
                            57 2.61
  60  0.582  0.919  0.099-  12 2.49  58 2.49  35 2.51  28 2.51  10 2.51  64 2.54  51 2.55  48 2.56
                            62 2.57
  61  0.586  0.912  0.375-  47 2.32  30 2.37   3 2.39  63 2.42  52 2.46  49 2.46  11 2.52  59 2.53
                            36 2.59
  62  0.834  0.914  0.097-  51 2.50  56 2.51  37 2.54  29 2.54  10 2.55  64 2.55  31 2.55  60 2.57
                            53 2.57
  63  0.828  0.917  0.376-  30 2.32  24 2.41  61 2.42   1 2.45  54 2.45  11 2.48  32 2.51  57 2.55
                            52 2.56
  64  0.668  0.834  0.195-  30 2.39  24 2.44  47 2.49  55 2.51  37 2.53  25 2.53  60 2.54  28 2.54
                            12 2.54  51 2.54  29 2.54  62 2.55
 

IMPORTANT INFORMATION: All symmetrisations will be switched off!
NOSYMM: (Re-)initialisation of all symmetry stuff for point group C_1.

 
 

Automatic generation of k-mesh.
 generate k-points for:    3    3    1
Space group operators:
 irot       det(A)        alpha          n_x          n_y          n_z        tau_x        tau_y        tau_z
    1     1.000000     0.000001     1.000000     0.000000     0.000000     0.000000     0.000000     0.000000
 
 Subroutine IBZKPT returns following result:
 ===========================================
 
 Found      5 irreducible k-points:
 
 Following reciprocal coordinates:
            Coordinates               Weight
  0.000000  0.000000  0.000000      1.000000
  0.333333  0.000000  0.000000      2.000000
  0.000000  0.333333  0.000000      2.000000
  0.333333  0.333333  0.000000      2.000000
 -0.333333  0.333333  0.000000      2.000000
 
 Following cartesian coordinates:
            Coordinates               Weight
  0.000000  0.000000  0.000000      1.000000
  0.033002  0.019054  0.000000      2.000000
  0.000000  0.038108  0.000000      2.000000
  0.033002  0.057162  0.000000      2.000000
 -0.033002  0.019054  0.000000      2.000000
 


--------------------------------------------------------------------------------------------------------




 Dimension of arrays:
   k-points           NKPTS =      5   k-points in BZ     NKDIM =      5   number of bands    NBANDS=    411
   number of dos      NEDOS =    301   number of ions     NIONS =     64
   non local maximal  LDIM  =      6   non local SUM 2l+1 LMDIM =     18
   total plane-waves  NPLWV = ******
   max r-space proj   IRMAX =   8274   max aug-charges    IRDMAX=  19579
   dimension x,y,z NGX =    80 NGY =   80 NGZ =  160
   dimension x,y,z NGXF=   160 NGYF=  160 NGZF=  320
   support grid    NGXF=   160 NGYF=  160 NGZF=  320
   ions per type =              29  35
   NGX,Y,Z   is equivalent  to a cutoff of  13.17, 13.17, 12.49 a.u.
   NGXF,Y,Z  is equivalent  to a cutoff of  26.34, 26.34, 24.97 a.u.

 SYSTEM =  SQS-NiFe                                
 POSCAR =  POSCAR                                  

 Startparameter for this run:
   NWRITE =      2    write-flag & timer
   PREC   = accura    normal or accurate (medium, high low for compatibility)
   ISTART =      0    job   : 0-new  1-cont  2-samecut
   ICHARG =      2    charge: 1-file 2-atom 10-const
   ISPIN  =      2    spin polarized calculation?
   LNONCOLLINEAR =      F non collinear calculations
   LSORBIT =      F    spin-orbit coupling
   INIWAV =      1    electr: 0-lowe 1-rand  2-diag
   LASPH  =      F    aspherical Exc in radial PAW
   METAGGA=      F    non-selfconsistent MetaGGA calc.

 Electronic Relaxation 1
   ENCUT  =  520.0 eV  38.22 Ry    6.18 a.u.  18.78 18.78 39.61*2*pi/ulx,y,z
   ENINI  =  520.0     initial cutoff
   ENAUG  =  544.6 eV  augmentation charge cutoff
   NELM   =    200;   NELMIN=  2; NELMDL= -5     # of ELM steps 
   EDIFF  = 0.1E-04   stopping-criterion for ELM
   LREAL  =      T    real-space projection
   NLSPLINE    = F    spline interpolate recip. space projectors
   LCOMPAT=      F    compatible to vasp.4.4
   GGA_COMPAT  = T    GGA compatible to vasp.4.4-vasp.4.6
   LMAXPAW     = -100 max onsite density
   LMAXMIX     =    2 max onsite mixed and CHGCAR
   VOSKOWN=      0    Vosko Wilk Nusair interpolation
   ROPT   =   -0.00025  -0.00025
 Ionic relaxation
   EDIFFG = -.5E-01   stopping-criterion for IOM
   NSW    =     99    number of steps for IOM
   NBLOCK =      1;   KBLOCK =     99    inner block; outer block 
   IBRION =      2    ionic relax: 0-MD 1-quasi-New 2-CG
   NFREE  =      1    steps in history (QN), initial steepest desc. (CG)
   ISIF   =      2    stress and relaxation
   IWAVPR =     11    prediction:  0-non 1-charg 2-wave 3-comb
   ISYM   =      0    0-nonsym 1-usesym 2-fastsym
   LCORR  =      T    Harris-Foulkes like correction to forces

   POTIM  = 0.5000    time-step for ionic-motion
   TEIN   =    0.0    initial temperature
   TEBEG  =    0.0;   TEEND  =   0.0 temperature during run
   SMASS  =  -3.00    Nose mass-parameter (am)
   estimated Nose-frequenzy (Omega)   =  0.10E-29 period in steps =****** mass=  -0.233E-26a.u.
   SCALEE = 1.0000    scale energy and forces
   NPACO  =    256;   APACO  = 16.0  distance and # of slots for P.C.
   PSTRESS=    0.0 pullay stress

  Mass of Ions in am
   POMASS =  58.69 55.85
  Ionic Valenz
   ZVAL   =  10.00  8.00
  Atomic Wigner-Seitz radii
   RWIGS  =  -1.00 -1.00
  virtual crystal weights 
   VCA    =   1.00  1.00
   NELECT =     570.0000    total number of electrons
   NUPDOWN=      -1.0000    fix difference up-down

 DOS related values:
   EMIN   =  10.00;   EMAX   =-10.00  energy-range for DOS
   EFERMI =   0.00
   ISMEAR =     1;   SIGMA  =   0.20  broadening in eV -4-tet -1-fermi 0-gaus

 Electronic relaxation 2 (details)
   IALGO  =     68    algorithm
   LDIAG  =      T    sub-space diagonalisation (order eigenvalues)
   LSUBROT=      F    optimize rotation matrix (better conditioning)
   TURBO    =      0    0=normal 1=particle mesh
   IRESTART =      0    0=no restart 2=restart with 2 vectors
   NREBOOT  =      0    no. of reboots
   NMIN     =      0    reboot dimension
   EREF     =   0.00    reference energy to select bands
   IMIX   =      4    mixing-type and parameters
     AMIX     =   0.40;   BMIX     =  1.00
     AMIX_MAG =   1.60;   BMIX_MAG =  1.00
     AMIN     =   0.10
     WC   =   100.;   INIMIX=   1;  MIXPRE=   1;  MAXMIX= -45

 Intra band minimization:
   WEIMIN = 0.0010     energy-eigenvalue tresh-hold
   EBREAK =  0.61E-08  absolut break condition
   DEPER  =   0.30     relativ break condition  

   TIME   =   0.40     timestep for ELM

  volume/ion in A,a.u.               =      29.41       198.44
  Fermi-wavevector in a.u.,A,eV,Ry     =   1.099415  2.077594 16.445550  1.208714
  Thomas-Fermi vector in A             =   2.235809
 
 Write flags
   LWAVE        =      F    write WAVECAR
   LDOWNSAMPLE  =      F    k-point downsampling of WAVECAR
   LCHARG       =      F    write CHGCAR
   LVTOT        =      F    write LOCPOT, total local potential
   LVHAR        =      F    write LOCPOT, Hartree potential only
   LELF         =      F    write electronic localiz. function (ELF)
   LORBIT       =     10    0 simple, 1 ext, 2 COOP (PROOUT), +10 PAW based schemes


 Dipole corrections
   LMONO  =      F    monopole corrections only (constant potential shift)
   LDIPOL =      T    correct potential (dipole corrections)
   IDIPOL =      3    1-x, 2-y, 3-z, 4-all directions 
   EPSILON=  1.0000000 bulk dielectric constant

 Exchange correlation treatment:
   GGA     =    --    GGA type
   LEXCH   =     8    internal setting for exchange type
   VOSKOWN=      0    Vosko Wilk Nusair interpolation
   LHFCALC =     F    Hartree Fock is set to
   LHFONE  =     F    Hartree Fock one center treatment
   AEXX    =    0.0000 exact exchange contribution

 Linear response parameters
   LEPSILON=     F    determine dielectric tensor
   LRPA    =     F    only Hartree local field effects (RPA)
   LNABLA  =     F    use nabla operator in PAW spheres
   LVEL    =     F    velocity operator in full k-point grid
   LINTERFAST=   F  fast interpolation
   KINTER  =     0    interpolate to denser k-point grid
   CSHIFT  =0.1000    complex shift for real part using Kramers Kronig
   OMEGAMAX=  -1.0    maximum frequency
   DEG_THRESHOLD= 0.2000000E-02 threshold for treating states as degnerate
   RTIME   =   -0.100 relaxation time in fs
  (WPLASMAI=    0.000 imaginary part of plasma frequency in eV, 0.658/RTIME)
   DFIELD  = 0.0000000 0.0000000 0.0000000 field for delta impulse in time
 
 Orbital magnetization related:
   ORBITALMAG=     F  switch on orbital magnetization
   LCHIMAG   =     F  perturbation theory with respect to B field
   DQ        =  0.001000  dq finite difference perturbation B field
   LLRAUG    =     F  two centre corrections for induced B field



--------------------------------------------------------------------------------------------------------


 conjugate gradient relaxation of ions
   using selective dynamics as specified on POSCAR
 charge density and potential will be updated during run
 spin polarized calculation
 RMM-DIIS sequential band-by-band and
  variant of blocked Davidson during initial phase
 perform sub-space diagonalisation
    before iterative eigenvector-optimisation
 modified Broyden-mixing scheme, WC =      100.0
 initial mixing is a Kerker type mixing with AMIX =  0.4000 and BMIX =      1.0000
 Hartree-type preconditioning will be used
 using additional bands          126
 real space projection scheme for non local part
 use partial core corrections
 calculate Harris-corrections to forces 
   (improved forces if not selfconsistent)
 use gradient corrections 
 use of overlap-Matrix (Vanderbilt PP)
 Methfessel and Paxton  Order N= 1 SIGMA  =   0.20


--------------------------------------------------------------------------------------------------------


  energy-cutoff  :      520.00
  volume of cell :     1881.98
      direct lattice vectors                 reciprocal lattice vectors
    10.100310000  0.000000000  0.000000000     0.099006862  0.057161638  0.000000000
    -5.050155000  8.747125050  0.000000000     0.000000000  0.114323277  0.000000000
     0.000000000  0.000000000 21.301690600     0.000000000  0.000000000  0.046944631

  length of vectors
    10.100310000 10.100310003 21.301690600     0.114323277  0.114323277  0.046944631


 
 k-points in units of 2pi/SCALE and weight: read from INCAR                         
   0.00000000  0.00000000  0.00000000       0.111
   0.03300229  0.01905388  0.00000000       0.222
   0.00000000  0.03810776  0.00000000       0.222
   0.03300229  0.05716164  0.00000000       0.222
  -0.03300229  0.01905388  0.00000000       0.222
 
 k-points in reciprocal lattice and weights: read from INCAR                         
   0.00000000  0.00000000  0.00000000       0.111
   0.33333333  0.00000000  0.00000000       0.222
   0.00000000  0.33333333  0.00000000       0.222
   0.33333333  0.33333333  0.00000000       0.222
  -0.33333333  0.33333333  0.00000000       0.222
 
 position of ions in fractional coordinates (direct lattice) 
   0.00184447  0.00221925  0.28546142
   0.25309867  0.00108086  0.28722498
   0.50071228  0.99654552  0.28717845
   0.00182636  0.24983727  0.28615926
   0.25510318  0.25378370  0.28660806
   0.33446800  0.16514600  0.09636487
   0.33035984  0.16604214  0.38084433
   0.75005392  0.24926552  0.28745423
   0.41837500  0.08394000  0.19264317
   0.83203200  0.16588400  0.09821039
   0.83188677  0.16443351  0.37985374
   0.66797000  0.08472300  0.19421489
   0.00374916  0.50078542  0.28920766
   0.74934969  0.50103122  0.28814933
   0.58310200  0.41320400  0.09683844
   0.58076623  0.41755421  0.37970133
   0.41961000  0.33337100  0.19266495
   0.83119700  0.41475900  0.09842584
   0.83252808  0.41771566  0.38129384
   0.91855900  0.33501600  0.19420908
   0.00428480  0.74959358  0.28766179
   0.08195100  0.66570400  0.09747927
   0.08878236  0.66970162  0.38123866
   0.74563682  0.74553011  0.28717480
   0.41737300  0.58352400  0.19475466
   0.91550800  0.58461900  0.19395095
   0.16682900  0.83490800  0.19309090
   0.41715300  0.83338800  0.19531186
   0.91985100  0.83263700  0.19392075
   0.75024161  0.99126654  0.28656633
   0.08475800  0.16932700  0.09388926
   0.07770045  0.16495930  0.37597303
   0.50989778  0.25524027  0.28726850
   0.17139600  0.08339300  0.19388126
   0.58776100  0.16931300  0.09618717
   0.57187094  0.16111263  0.37478996
   0.91693100  0.08581500  0.19262604
   0.25537011  0.50685273  0.28881579
   0.07438400  0.41509600  0.09744675
   0.09428235  0.41144261  0.37646531
   0.49548422  0.49985394  0.28877896
   0.33917200  0.41514500  0.09699001
   0.33398841  0.42688073  0.37784344
   0.17081400  0.33724200  0.19402731
   0.67264700  0.33598100  0.19452441
   0.25599193  0.74550626  0.28964973
   0.50064715  0.74756483  0.28981400
   0.33208500  0.66262100  0.09936022
   0.33995749  0.67055517  0.37713510
   0.16470600  0.58627100  0.19584874
   0.58579400  0.66826100  0.09684048
   0.57522067  0.66352283  0.37672715
   0.83088100  0.65877500  0.09658990
   0.84420751  0.68307995  0.37791343
   0.66762500  0.58426200  0.19372156
   0.08235500  0.91427100  0.09464942
   0.07781361  0.91237816  0.37684137
   0.33394400  0.91584300  0.09825017
   0.33887088  0.91854103  0.37692341
   0.58231600  0.91865200  0.09902340
   0.58584352  0.91172450  0.37516970
   0.83419400  0.91449400  0.09650569
   0.82829782  0.91725975  0.37571116
   0.66841400  0.83351100  0.19511790
 
 position of ions in cartesian coordinates  (Angst):
   0.00742220  0.01941202  6.08081084
   2.55091656  0.00945441  6.11837770
   0.02463993  8.71690829  6.11738642
  -1.24327014  2.18535784  6.09567597
   1.29497413  2.21987777  6.10523614
   2.54421759  1.44455271  2.05273465
   2.49819831  1.45239132  8.11262804
   6.31694754  2.18035671  6.12326100
   3.80180719  0.73423368  4.10362520
   7.56604122  1.45100809  2.09204734
   7.57189949  1.43832052  8.09152686
   6.31883979  0.74108268  4.13710550
  -2.49117631  4.38043267  6.16061214
   5.03837885  4.38258277  6.13806796
   3.80276671  3.61434706  2.06282249
   3.75720550  3.65239887  8.08828024
   2.55461586  2.91603783  4.10408915
   6.30075013  3.62794884  2.09663679
   6.29926290  3.65381108  8.12220331
   7.58584793  2.93042685  4.13698173
  -3.74228594  6.55678877  6.12768251
  -2.53417788  5.82299613  2.07647325
  -2.48536759  5.85796382  8.12102789
   3.76612048  6.52124506  6.11730865
   1.26871004  5.10415740  4.14860351
   6.29449804  5.11373550  4.13148313
  -2.53139019  7.30304468  4.11316261
   0.00463604  7.28974905  4.16047281
   5.08583435  7.28317996  4.13083982
   2.57162316  8.67073238  6.10434720
   0.00095448  1.48112444  1.99999997
  -0.04827145  1.44291966  8.00886122
   3.86112274  2.23261853  6.11930473
   1.31000516  0.72944900  4.12999861
   5.08151141  1.48100198  2.04894934
   4.96242998  1.40927236  7.98365978
   8.82790830  0.75063454  4.10326031
   0.01963246  4.43350423  6.15226459
  -1.34499768  3.63089662  2.07578052
  -1.12556803  3.59893995  8.01934754
   2.48020431  4.37228489  6.15148011
   1.32919575  3.63132523  2.06605118
   1.21757260  3.73397917  8.04870411
   0.02214998  2.94989795  4.13310973
   5.09718709  2.93886782  4.14369880
  -1.17932434  6.52103644  6.17002888
   1.28137321  6.53904302  6.17352826
   0.00782269  5.79602875  2.11654066
   0.04726855  5.86542988  8.03361527
  -1.29717776  5.12818575  4.17190926
   2.54187937  5.84536253  2.06286594
   2.45901393  5.80391714  8.02492513
   5.06523981  5.76238730  2.05752816
   5.07709794  5.97498578  8.05019487
   3.79260580  5.11061278  4.12659673
  -3.78539923  7.99724277  2.01619266
  -3.82170957  7.98068590  8.02735818
  -1.25221118  8.01099325  2.09289472
  -1.21607362  8.03459328  8.02910583
   1.24223713  8.03556392  2.10936583
   1.31285112  7.97496824  7.99174885
   3.80728155  7.99919338  2.05573435
   3.73376078  8.02338576  8.00328298
   2.54182886  7.29082495  4.15634114
 


--------------------------------------------------------------------------------------------------------


 k-point  1 :   0.0000 0.0000 0.0000  plane waves:   50713
 k-point  2 :   0.3333 0.0000 0.0000  plane waves:   50672
 k-point  3 :   0.0000 0.3333 0.0000  plane waves:   50672
 k-point  4 :   0.3333 0.3333 0.0000  plane waves:   50673
 k-point  5 :  -0.3333 0.3333 0.0000  plane waves:   50672

 maximum and minimum number of plane-waves per node :      2138     2092

 maximum number of plane-waves:     50713
 maximum index in each direction: 
   IXMAX=   19   IYMAX=   18   IZMAX=   39
   IXMIN=  -19   IYMIN=  -19   IZMIN=  -39


 real space projection operators:
  total allocation   :      66542.06 KBytes
  max/ min on nodes  :       3369.80       2446.73


 parallel 3D FFT for wavefunctions:
    minimum data exchange during FFTs selected (reduces bandwidth)
 parallel 3D FFT for charge:
    minimum data exchange during FFTs selected (reduces bandwidth)


 total amount of memory used by VASP MPI-rank0   114060. kBytes
=======================================================================

   base      :      30000. kBytes
   nonlr-proj:      13039. kBytes
   fftplans  :       6403. kBytes
   grid      :      16455. kBytes
   one-center:         93. kBytes
   wavefun   :      48070. kBytes
 
     INWAV:  cpu time    0.0010: real time    0.0002
 Broyden mixing: mesh for mixing (old mesh)
   NGX = 37   NGY = 37   NGZ = 79
  (NGX  =160   NGY  =160   NGZ  =320)
  gives a total of 108151 points

 initial charge density was supplied:
 charge density of overlapping atoms calculated
 number of electron     570.0000000 magnetization     134.0000000
 keeping initial charge density in first step


--------------------------------------------------------------------------------------------------------


 Maximum index for non-local projection operator          761
 Maximum index for augmentation-charges         1117 (set IRDMAX)


--------------------------------------------------------------------------------------------------------


 First call to EWALD:  gamma=   0.144
 Maximum number of real-space cells 4x 4x 2
 Maximum number of reciprocal cells 2x 2x 4

    FEWALD:  cpu time    0.0060: real time    0.0052


--------------------------------------- Iteration      1(   1)  ---------------------------------------


    POTLOK:  cpu time    0.2500: real time    0.2586
    SETDIJ:  cpu time    0.0170: real time    0.0192
     EDDAV:  cpu time   24.5893: real time   25.0693
       DOS:  cpu time    0.0050: real time    0.0053
    --------------------------------------------
      LOOP:  cpu time   24.8612: real time   25.3524

 eigenvalue-minimisations  :  8220
 total energy-change (2. order) : 0.4788656E+04  (-0.2396941E+05)
 number of electron     570.0000000 magnetization     134.0000000
 augmentation part      570.0000000 magnetization     134.0000000

 DIPCOR: dipole corrections for dipol
 direction  3 min pos   237,
 dipolmoment           0.000000      0.000000     -0.000014 electrons x Angstroem
 Tr[quadrupol]     -9642.608299

 energy correction for charged system         0.000000 eV
 dipol+quadrupol energy correction           -0.000000 eV
 added-field ion interaction          0.000031 eV  (added to PSCEN)


 Free energy of the ion-electron system (eV)
  ---------------------------------------------------
  alpha Z        PSCENC =      1363.74999827
  Ewald energy   TEWEN  =    195514.46079585
  -Hartree energ DENC   =   -247056.32980694
  -exchange      EXHF   =         0.00000000
  -V(xc)+E(xc)   XCENC  =      1080.55370577
  PAW double counting   =     47303.73637439   -49512.43570476
  entropy T*S    EENTRO =        -0.00195502
  eigenvalues    EBANDS =      4041.52224199
  atomic energy  EATOM  =     52053.40048729
  Solvation  Ediel_sol  =         0.00000000
  ---------------------------------------------------
  free energy    TOTEN  =      4788.65613684 eV

  energy without entropy =     4788.65809186  energy(sigma->0) =     4788.65678851


--------------------------------------------------------------------------------------------------------




--------------------------------------- Iteration      1(   2)  ---------------------------------------


     EDDAV:  cpu time   24.7212: real time   25.2855
       DOS:  cpu time    0.0070: real time    0.0069
    --------------------------------------------
      LOOP:  cpu time   24.7282: real time   25.2924

 eigenvalue-minimisations  :  8220
 total energy-change (2. order) :-0.4770776E+04  (-0.4454487E+04)
 number of electron     570.0000000 magnetization     134.0000000
 augmentation part      570.0000000 magnetization     134.0000000

 DIPCOR: dipole corrections for dipol
 direction  3 min pos   237,
 dipolmoment           0.000000      0.000000     -0.000014 electrons x Angstroem
 Tr[quadrupol]     -9642.608299

 energy correction for charged system         0.000000 eV
 dipol+quadrupol energy correction           -0.000000 eV
 added-field ion interaction          0.000031 eV  (added to PSCEN)


 Free energy of the ion-electron system (eV)
  ---------------------------------------------------
  alpha Z        PSCENC =      1363.74999827
  Ewald energy   TEWEN  =    195514.46079585
  -Hartree energ DENC   =   -247056.32980694
  -exchange      EXHF   =         0.00000000
  -V(xc)+E(xc)   XCENC  =      1080.55370577
  PAW double counting   =     47303.73637439   -49512.43570476
  entropy T*S    EENTRO =         0.00527844
  eigenvalues    EBANDS =      -729.26104333
  atomic energy  EATOM  =     52053.40048729
  Solvation  Ediel_sol  =         0.00000000
  ---------------------------------------------------
  free energy    TOTEN  =        17.88008498 eV

  energy without entropy =       17.87480655  energy(sigma->0) =       17.87832550


--------------------------------------------------------------------------------------------------------




--------------------------------------- Iteration      1(   3)  ---------------------------------------


     EDDAV:  cpu time   25.7901: real time   25.9647
       DOS:  cpu time    0.0070: real time    0.0071
    --------------------------------------------
      LOOP:  cpu time   25.7971: real time   25.9718

 eigenvalue-minimisations  :  8496
 total energy-change (2. order) :-0.4766272E+03  (-0.4102771E+03)
 number of electron     570.0000000 magnetization     134.0000000
 augmentation part      570.0000000 magnetization     134.0000000

 DIPCOR: dipole corrections for dipol
 direction  3 min pos   237,
 dipolmoment           0.000000      0.000000     -0.000014 electrons x Angstroem
 Tr[quadrupol]     -9642.608299

 energy correction for charged system         0.000000 eV
 dipol+quadrupol energy correction           -0.000000 eV
 added-field ion interaction          0.000031 eV  (added to PSCEN)


 Free energy of the ion-electron system (eV)
  ---------------------------------------------------
  alpha Z        PSCENC =      1363.74999827
  Ewald energy   TEWEN  =    195514.46079585
  -Hartree energ DENC   =   -247056.32980694
  -exchange      EXHF   =         0.00000000
  -V(xc)+E(xc)   XCENC  =      1080.55370577
  PAW double counting   =     47303.73637439   -49512.43570476
  entropy T*S    EENTRO =         0.12404777
  eigenvalues    EBANDS =     -1206.00696570
  atomic energy  EATOM  =     52053.40048729
  Solvation  Ediel_sol  =         0.00000000
  ---------------------------------------------------
  free energy    TOTEN  =      -458.74706806 eV

  energy without entropy =     -458.87111583  energy(sigma->0) =     -458.78841732


--------------------------------------------------------------------------------------------------------




--------------------------------------- Iteration      1(   4)  ---------------------------------------


     EDDAV:  cpu time   25.9031: real time   25.9613
       DOS:  cpu time    0.0080: real time    0.0075
    --------------------------------------------
      LOOP:  cpu time   25.9111: real time   25.9688

 eigenvalue-minimisations  :  8781
 total energy-change (2. order) :-0.2216994E+02  (-0.2150559E+02)
 number of electron     570.0000000 magnetization     134.0000000
 augmentation part      570.0000000 magnetization     134.0000000

 DIPCOR: dipole corrections for dipol
 direction  3 min pos   237,
 dipolmoment           0.000000      0.000000     -0.000014 electrons x Angstroem
 Tr[quadrupol]     -9642.608299

 energy correction for charged system         0.000000 eV
 dipol+quadrupol energy correction           -0.000000 eV
 added-field ion interaction          0.000031 eV  (added to PSCEN)


 Free energy of the ion-electron system (eV)
  ---------------------------------------------------
  alpha Z        PSCENC =      1363.74999827
  Ewald energy   TEWEN  =    195514.46079585
  -Hartree energ DENC   =   -247056.32980694
  -exchange      EXHF   =         0.00000000
  -V(xc)+E(xc)   XCENC  =      1080.55370577
  PAW double counting   =     47303.73637439   -49512.43570476
  entropy T*S    EENTRO =         0.13773697
  eigenvalues    EBANDS =     -1228.19059325
  atomic energy  EATOM  =     52053.40048729
  Solvation  Ediel_sol  =         0.00000000
  ---------------------------------------------------
  free energy    TOTEN  =      -480.91700640 eV

  energy without entropy =     -481.05474337  energy(sigma->0) =     -480.96291872


--------------------------------------------------------------------------------------------------------




--------------------------------------- Iteration      1(   5)  ---------------------------------------


     EDDAV:  cpu time   26.9049: real time   27.0675
       DOS:  cpu time    0.0080: real time    0.0079
    CHARGE:  cpu time    1.0588: real time    1.0762
    MIXING:  cpu time    0.0060: real time    0.0049
    --------------------------------------------
      LOOP:  cpu time   27.9777: real time   28.1567

 eigenvalue-minimisations  :  9303
 total energy-change (2. order) :-0.4550190E+00  (-0.4537585E+00)
 number of electron     570.0000015 magnetization     130.5056695
 augmentation part      291.5385626 magnetization     101.2706392

 DIPCOR: dipole corrections for dipol
 direction  3 min pos   237,
 dipolmoment           0.000000      0.000000     -0.000014 electrons x Angstroem
 Tr[quadrupol]     -9642.608299

 energy correction for charged system         0.000000 eV
 dipol+quadrupol energy correction           -0.000000 eV
 added-field ion interaction          0.000031 eV  (added to PSCEN)


 Broyden mixing:
  rms(total) = 0.83447E+01    rms(broyden)= 0.83446E+01
  rms(prec ) = 0.88294E+01
  weight for this iteration     100.00

 Free energy of the ion-electron system (eV)
  ---------------------------------------------------
  alpha Z        PSCENC =      1363.74999827
  Ewald energy   TEWEN  =    195514.46079585
  -Hartree energ DENC   =   -247056.32980694
  -exchange      EXHF   =         0.00000000
  -V(xc)+E(xc)   XCENC  =      1080.55370577
  PAW double counting   =     47303.73637439   -49512.43570476
  entropy T*S    EENTRO =         0.13800248
  eigenvalues    EBANDS =     -1228.64587773
  atomic energy  EATOM  =     52053.40048729
  Solvation  Ediel_sol  =         0.00000000
  ---------------------------------------------------
  free energy    TOTEN  =      -481.37202538 eV

  energy without entropy =     -481.51002786  energy(sigma->0) =     -481.41802620


--------------------------------------------------------------------------------------------------------




--------------------------------------- Iteration      1(   6)  ---------------------------------------


    POTLOK:  cpu time    0.2390: real time    0.2518
    SETDIJ:  cpu time    0.0210: real time    0.0204
    EDDIAG:  cpu time    3.7734: real time    3.8604
  RMM-DIIS:  cpu time   15.4547: real time   15.6034
    ORTHCH:  cpu time    0.6629: real time    0.6663
       DOS:  cpu time    0.0070: real time    0.0070
    CHARGE:  cpu time    1.0288: real time    1.0315
    MIXING:  cpu time    0.0050: real time    0.0051
    --------------------------------------------
      LOOP:  cpu time   21.1918: real time   21.4459

 eigenvalue-minimisations  :  8231
 total energy-change (2. order) :-0.2182928E+03  (-0.7981813E+02)
 number of electron     570.0000034 magnetization     128.9568497
 augmentation part      340.3570463 magnetization     112.0027028

 DIPCOR: dipole corrections for dipol
 direction  3 min pos   230,
 dipolmoment           0.000000      0.000000      2.214118 electrons x Angstroem
 Tr[quadrupol]     -9650.523034

 energy correction for charged system         0.000000 eV
 dipol+quadrupol energy correction           -0.235689 eV
 added-field ion interaction        -61.448354 eV  (added to PSCEN)


 Broyden mixing:
  rms(total) = 0.19145E+02    rms(broyden)= 0.19145E+02
  rms(prec ) = 0.23873E+02
  weight for this iteration     100.00

 eigenvalues of (default mixing * dielectric matrix)
  average eigenvalue GAMMA=   0.1740
  0.1740

 Free energy of the ion-electron system (eV)
  ---------------------------------------------------
  alpha Z        PSCENC =      1302.06592431
  Ewald energy   TEWEN  =    195514.46079585
  -Hartree energ DENC   =   -246171.67772010
  -exchange      EXHF   =         0.00000000
  -V(xc)+E(xc)   XCENC  =      1024.03546093
  PAW double counting   =     50782.34764308   -52801.52190121
  entropy T*S    EENTRO =         0.03270180
  eigenvalues    EBANDS =     -2402.80823481
  atomic energy  EATOM  =     52053.40048729
  Solvation  Ediel_sol  =         0.00000000
  ---------------------------------------------------
  free energy    TOTEN  =      -699.66484287 eV

  energy without entropy =     -699.69754467  energy(sigma->0) =     -699.67574347


--------------------------------------------------------------------------------------------------------




--------------------------------------- Iteration      1(   7)  ---------------------------------------


    POTLOK:  cpu time    0.2540: real time    0.2569
    SETDIJ:  cpu time    0.0200: real time    0.0193
    EDDIAG:  cpu time    3.8394: real time    3.8646
  RMM-DIIS:  cpu time   15.3827: real time   15.5100
    ORTHCH:  cpu time    0.6389: real time    0.6462
       DOS:  cpu time    0.0070: real time    0.0068
    CHARGE:  cpu time    1.0518: real time    1.0614
    MIXING:  cpu time    0.0060: real time    0.0057
    --------------------------------------------
      LOOP:  cpu time   21.1998: real time   21.3709

 eigenvalue-minimisations  :  8237
 total energy-change (2. order) : 0.4950718E+02  (-0.2442064E+02)
 number of electron     569.9999996 magnetization     126.8061566
 augmentation part      334.5918620 magnetization     107.3696469

 DIPCOR: dipole corrections for dipol
 direction  3 min pos   237,
 dipolmoment           0.000000      0.000000     -2.741454 electrons x Angstroem
 Tr[quadrupol]     -9647.679967

 energy correction for charged system         0.000000 eV
 dipol+quadrupol energy correction           -0.361326 eV
 added-field ion interaction          6.069157 eV  (added to PSCEN)


 Broyden mixing:
  rms(total) = 0.17431E+02    rms(broyden)= 0.17430E+02
  rms(prec ) = 0.24644E+02
  weight for this iteration     100.00

 eigenvalues of (default mixing * dielectric matrix)
  average eigenvalue GAMMA=   0.1626
  0.2270  0.0982

 Free energy of the ion-electron system (eV)
  ---------------------------------------------------
  alpha Z        PSCENC =      1369.45779824
  Ewald energy   TEWEN  =    195514.46079585
  -Hartree energ DENC   =   -246090.54149498
  -exchange      EXHF   =         0.00000000
  -V(xc)+E(xc)   XCENC  =      1026.63003645
  PAW double counting   =     51472.99589671   -53542.39186001
  entropy T*S    EENTRO =        -0.00681846
  eigenvalues    EBANDS =     -2454.16250591
  atomic energy  EATOM  =     52053.40048729
  Solvation  Ediel_sol  =         0.00000000
  ---------------------------------------------------
  free energy    TOTEN  =      -650.15766483 eV

  energy without entropy =     -650.15084637  energy(sigma->0) =     -650.15539201


--------------------------------------------------------------------------------------------------------




--------------------------------------- Iteration      1(   8)  ---------------------------------------


    POTLOK:  cpu time    0.2530: real time    0.2548
    SETDIJ:  cpu time    0.0190: real time    0.0193
    EDDIAG:  cpu time    3.8564: real time    3.8890
  RMM-DIIS:  cpu time   15.4976: real time   15.6170
    ORTHCH:  cpu time    0.6769: real time    0.6804
       DOS:  cpu time    0.0070: real time    0.0072
    CHARGE:  cpu time    1.0368: real time    1.0437
    MIXING:  cpu time    0.0060: real time    0.0052
    --------------------------------------------
      LOOP:  cpu time   21.3528: real time   21.5167

 eigenvalue-minimisations  :  8252
 total energy-change (2. order) : 0.5676826E+02  (-0.6793589E+01)
 number of electron     570.0000033 magnetization     124.7045743
 augmentation part      333.4420744 magnetization     106.1630271

 DIPCOR: dipole corrections for dipol
 direction  3 min pos   234,
 dipolmoment           0.000000      0.000000      1.802562 electrons x Angstroem
 Tr[quadrupol]     -9647.121441

 energy correction for charged system         0.000000 eV
 dipol+quadrupol energy correction           -0.156213 eV
 added-field ion interaction        -23.720246 eV  (added to PSCEN)


 Broyden mixing:
  rms(total) = 0.19167E+02    rms(broyden)= 0.19167E+02
  rms(prec ) = 0.25712E+02
  weight for this iteration     100.00

 eigenvalues of (default mixing * dielectric matrix)
  average eigenvalue GAMMA=   0.1551
  0.2026  0.2026  0.0601

 Free energy of the ion-electron system (eV)
  ---------------------------------------------------
  alpha Z        PSCENC =      1339.87350810
  Ewald energy   TEWEN  =    195514.46079585
  -Hartree energ DENC   =   -246217.78765424
  -exchange      EXHF   =         0.00000000
  -V(xc)+E(xc)   XCENC  =      1035.31011122
  PAW double counting   =     52343.27617279   -54469.15539957
  entropy T*S    EENTRO =        -0.01522908
  eigenvalues    EBANDS =     -2192.75219323
  atomic energy  EATOM  =     52053.40048729
  Solvation  Ediel_sol  =         0.00000000
  ---------------------------------------------------
  free energy    TOTEN  =      -593.38940088 eV

  energy without entropy =     -593.37417180  energy(sigma->0) =     -593.38432452


--------------------------------------------------------------------------------------------------------




--------------------------------------- Iteration      1(   9)  ---------------------------------------


    POTLOK:  cpu time    0.2570: real time    0.2596
    SETDIJ:  cpu time    0.0200: real time    0.0192
    EDDIAG:  cpu time    3.9404: real time    3.9667
  RMM-DIIS:  cpu time   15.6176: real time   15.8070
    ORTHCH:  cpu time    0.6569: real time    0.6613
       DOS:  cpu time    0.0080: real time    0.0078
    CHARGE:  cpu time    1.0348: real time    1.0441
    MIXING:  cpu time    0.0070: real time    0.0056
    --------------------------------------------
      LOOP:  cpu time   21.5417: real time   21.7714

 eigenvalue-minimisations  :  8281
 total energy-change (2. order) : 0.1977258E+03  (-0.6701492E+01)
 number of electron     570.0000015 magnetization     121.9758837
 augmentation part      330.0914822 magnetization      90.4189445

 DIPCOR: dipole corrections for dipol
 direction  3 min pos   246,
 dipolmoment           0.000000      0.000000     -0.428736 electrons x Angstroem
 Tr[quadrupol]     -9650.579815

 energy correction for charged system         0.000000 eV
 dipol+quadrupol energy correction           -0.008837 eV
 added-field ion interaction        -13.128817 eV  (added to PSCEN)


 Broyden mixing:
  rms(total) = 0.68232E+01    rms(broyden)= 0.68228E+01
  rms(prec ) = 0.74939E+01
  weight for this iteration     100.00

 eigenvalues of (default mixing * dielectric matrix)
  average eigenvalue GAMMA=   0.2930
  0.5051  0.5051  0.1063  0.0556

 Free energy of the ion-electron system (eV)
  ---------------------------------------------------
  alpha Z        PSCENC =      1350.61231286
  Ewald energy   TEWEN  =    195514.46079585
  -Hartree energ DENC   =   -246339.92186807
  -exchange      EXHF   =         0.00000000
  -V(xc)+E(xc)   XCENC  =      1042.21289694
  PAW double counting   =     52979.28996746   -55135.70911502
  entropy T*S    EENTRO =         0.01666323
  eigenvalues    EBANDS =     -1860.02575343
  atomic energy  EATOM  =     52053.40048729
  Solvation  Ediel_sol  =         0.00000000
  ---------------------------------------------------
  free energy    TOTEN  =      -395.66361290 eV

  energy without entropy =     -395.68027613  energy(sigma->0) =     -395.66916731


--------------------------------------------------------------------------------------------------------




--------------------------------------- Iteration      1(  10)  ---------------------------------------


    POTLOK:  cpu time    0.2530: real time    0.2574
    SETDIJ:  cpu time    0.0190: real time    0.0191
    EDDIAG:  cpu time    3.8824: real time    3.9271
  RMM-DIIS:  cpu time   15.8066: real time   16.0863
    ORTHCH:  cpu time    0.6639: real time    0.6761
       DOS:  cpu time    0.0070: real time    0.0074
    CHARGE:  cpu time    1.0438: real time    1.0592
    MIXING:  cpu time    0.0060: real time    0.0058
    --------------------------------------------
      LOOP:  cpu time   21.6817: real time   22.0385

 eigenvalue-minimisations  :  8279
 total energy-change (2. order) :-0.8166535E+02  (-0.1016948E+02)
 number of electron     570.0000019 magnetization     119.6323214
 augmentation part      326.8431620 magnetization      94.4584805

 DIPCOR: dipole corrections for dipol
 direction  3 min pos   233,
 dipolmoment           0.000000      0.000000      0.252071 electrons x Angstroem
 Tr[quadrupol]     -9653.006129

 energy correction for charged system         0.000000 eV
 dipol+quadrupol energy correction           -0.003055 eV
 added-field ion interaction         -4.236721 eV  (added to PSCEN)


 Broyden mixing:
  rms(total) = 0.13061E+02    rms(broyden)= 0.13061E+02
  rms(prec ) = 0.14837E+02
  weight for this iteration     100.00

 eigenvalues of (default mixing * dielectric matrix)
  average eigenvalue GAMMA=   0.3070
  0.7440  0.4875  0.1233  0.1233  0.0567

 Free energy of the ion-electron system (eV)
  ---------------------------------------------------
  alpha Z        PSCENC =      1359.51019092
  Ewald energy   TEWEN  =    195514.46079585
  -Hartree energ DENC   =   -246525.45028695
  -exchange      EXHF   =         0.00000000
  -V(xc)+E(xc)   XCENC  =      1048.68543678
  PAW double counting   =     54129.71347859   -56352.18627852
  entropy T*S    EENTRO =        -0.00295674
  eigenvalues    EBANDS =     -1705.45982725
  atomic energy  EATOM  =     52053.40048729
  Solvation  Ediel_sol  =         0.00000000
  ---------------------------------------------------
  free energy    TOTEN  =      -477.32896004 eV

  energy without entropy =     -477.32600330  energy(sigma->0) =     -477.32797446


--------------------------------------------------------------------------------------------------------




--------------------------------------- Iteration      1(  11)  ---------------------------------------


    POTLOK:  cpu time    0.2530: real time    0.2571
    SETDIJ:  cpu time    0.0190: real time    0.0195
    EDDIAG:  cpu time    3.6884: real time    3.7820
  RMM-DIIS:  cpu time   15.1417: real time   15.6378
    ORTHCH:  cpu time    0.6439: real time    0.6535
       DOS:  cpu time    0.0080: real time    0.0076
    CHARGE:  cpu time    1.0128: real time    1.0253
    MIXING:  cpu time    0.0060: real time    0.0057
    --------------------------------------------
      LOOP:  cpu time   20.7728: real time   21.3886

 eigenvalue-minimisations  :  8297
 total energy-change (2. order) : 0.7344761E+02  (-0.7025231E+01)
 number of electron     570.0000025 magnetization     118.3233917
 augmentation part      323.2343917 magnetization      87.7798679

 DIPCOR: dipole corrections for dipol
 direction  3 min pos   226,
 dipolmoment           0.000000      0.000000      0.391241 electrons x Angstroem
 Tr[quadrupol]     -9657.341228

 energy correction for charged system         0.000000 eV
 dipol+quadrupol energy correction           -0.007359 eV
 added-field ion interaction        -16.567769 eV  (added to PSCEN)


 Broyden mixing:
  rms(total) = 0.77042E+01    rms(broyden)= 0.77039E+01
  rms(prec ) = 0.87404E+01
  weight for this iteration     100.00

 eigenvalues of (default mixing * dielectric matrix)
  average eigenvalue GAMMA=   0.2964
  0.8104  0.4858  0.1987  0.0566  0.1294  0.0977

 Free energy of the ion-electron system (eV)
  ---------------------------------------------------
  alpha Z        PSCENC =      1347.17483883
  Ewald energy   TEWEN  =    195514.46079585
  -Hartree energ DENC   =   -246718.72256455
  -exchange      EXHF   =         0.00000000
  -V(xc)+E(xc)   XCENC  =      1052.31064373
  PAW double counting   =     54834.53668388   -57089.18440636
  entropy T*S    EENTRO =         0.07855252
  eigenvalues    EBANDS =     -1397.93638091
  atomic energy  EATOM  =     52053.40048729
  Solvation  Ediel_sol  =         0.00000000
  ---------------------------------------------------
  free energy    TOTEN  =      -403.88134972 eV

  energy without entropy =     -403.95990224  energy(sigma->0) =     -403.90753389


--------------------------------------------------------------------------------------------------------




--------------------------------------- Iteration      1(  12)  ---------------------------------------


    POTLOK:  cpu time    0.2670: real time    0.2715
    SETDIJ:  cpu time    0.0200: real time    0.0194
    EDDIAG:  cpu time    3.6304: real time    3.7891
  RMM-DIIS:  cpu time   14.9877: real time   15.7359
    ORTHCH:  cpu time    0.6529: real time    0.6780
       DOS:  cpu time    0.0080: real time    0.0079
    CHARGE:  cpu time    1.0088: real time    1.0536
    MIXING:  cpu time    0.0050: real time    0.0058
    --------------------------------------------
      LOOP:  cpu time   20.5799: real time   21.5611

 eigenvalue-minimisations  :  8302
 total energy-change (2. order) : 0.2269799E+02  (-0.2592711E+01)
 number of electron     570.0000018 magnetization     116.6307256
 augmentation part      323.8771076 magnetization      85.1982751

 DIPCOR: dipole corrections for dipol
 direction  3 min pos   241,
 dipolmoment           0.000000      0.000000     -0.100073 electrons x Angstroem
 Tr[quadrupol]     -9656.812374

 energy correction for charged system         0.000000 eV
 dipol+quadrupol energy correction           -0.000481 eV
 added-field ion interaction         -1.238896 eV  (added to PSCEN)


 Broyden mixing:
  rms(total) = 0.48558E+01    rms(broyden)= 0.48555E+01
  rms(prec ) = 0.55002E+01
  weight for this iteration     100.00

 eigenvalues of (default mixing * dielectric matrix)
  average eigenvalue GAMMA=   0.3338
  1.0013  0.4596  0.4596  0.0567  0.1361  0.1230  0.1006

 Free energy of the ion-electron system (eV)
  ---------------------------------------------------
  alpha Z        PSCENC =      1362.51058996
  Ewald energy   TEWEN  =    195514.46079585
  -Hartree energ DENC   =   -246684.37145787
  -exchange      EXHF   =         0.00000000
  -V(xc)+E(xc)   XCENC  =      1052.68473067
  PAW double counting   =     55154.28403304   -57415.18349459
  entropy T*S    EENTRO =         0.00490221
  eigenvalues    EBANDS =     -1418.97394403
  atomic energy  EATOM  =     52053.40048729
  Solvation  Ediel_sol  =         0.00000000
  ---------------------------------------------------
  free energy    TOTEN  =      -381.18335747 eV

  energy without entropy =     -381.18825968  energy(sigma->0) =     -381.18499154


--------------------------------------------------------------------------------------------------------




--------------------------------------- Iteration      1(  13)  ---------------------------------------


    POTLOK:  cpu time    0.2440: real time    0.2573
    SETDIJ:  cpu time    0.0200: real time    0.0206
    EDDIAG:  cpu time    3.6964: real time    3.8249
  RMM-DIIS:  cpu time   15.0407: real time   15.5500
    ORTHCH:  cpu time    0.6219: real time    0.6495
       DOS:  cpu time    0.0080: real time    0.0080
    CHARGE:  cpu time    1.0068: real time    1.0357
    MIXING:  cpu time    0.0060: real time    0.0057
    --------------------------------------------
      LOOP:  cpu time   20.6439: real time   21.3516

 eigenvalue-minimisations  :  8296
 total energy-change (2. order) :-0.1170514E+02  (-0.1878725E+01)
 number of electron     570.0000005 magnetization     115.0655062
 augmentation part      323.1343568 magnetization      84.4088819

 DIPCOR: dipole corrections for dipol
 direction  3 min pos   248,
 dipolmoment           0.000000      0.000000     -0.570905 electrons x Angstroem
 Tr[quadrupol]     -9658.422974

 energy correction for charged system         0.000000 eV
 dipol+quadrupol energy correction           -0.015670 eV
 added-field ion interaction        -21.648168 eV  (added to PSCEN)


 Broyden mixing:
  rms(total) = 0.73157E+01    rms(broyden)= 0.73155E+01
  rms(prec ) = 0.86325E+01
  weight for this iteration     100.00

 eigenvalues of (default mixing * dielectric matrix)
  average eigenvalue GAMMA=   0.3264
  1.0864  0.5064  0.5064  0.1528  0.0566  0.1152  0.1054  0.0821

 Free energy of the ion-electron system (eV)
  ---------------------------------------------------
  alpha Z        PSCENC =      1342.08612912
  Ewald energy   TEWEN  =    195514.46079585
  -Hartree energ DENC   =   -246763.16012297
  -exchange      EXHF   =         0.00000000
  -V(xc)+E(xc)   XCENC  =      1051.43842318
  PAW double counting   =     55635.40944870   -57912.86034973
  entropy T*S    EENTRO =        -0.00320769
  eigenvalues    EBANDS =     -1313.66009694
  atomic energy  EATOM  =     52053.40048729
  Solvation  Ediel_sol  =         0.00000000
  ---------------------------------------------------
  free energy    TOTEN  =      -392.88849318 eV

  energy without entropy =     -392.88528549  energy(sigma->0) =     -392.88742395


--------------------------------------------------------------------------------------------------------




--------------------------------------- Iteration      1(  14)  ---------------------------------------


    POTLOK:  cpu time    0.2460: real time    0.2567
    SETDIJ:  cpu time    0.0190: real time    0.0196
    EDDIAG:  cpu time    3.7384: real time    3.8630
  RMM-DIIS:  cpu time   15.0467: real time   15.5454
    ORTHCH:  cpu time    0.6789: real time    0.6835
       DOS:  cpu time    0.0080: real time    0.0074
    CHARGE:  cpu time    1.0088: real time    1.0152
    MIXING:  cpu time    0.0060: real time    0.0061
    --------------------------------------------
      LOOP:  cpu time   20.7518: real time   21.3969

 eigenvalue-minimisations  :  8289
 total energy-change (2. order) : 0.1130533E+02  (-0.1598722E+01)
 number of electron     570.0000019 magnetization     114.4189890
 augmentation part      323.8084416 magnetization      82.7174154

 DIPCOR: dipole corrections for dipol
 direction  3 min pos   235,
 dipolmoment           0.000000      0.000000      0.061008 electrons x Angstroem
 Tr[quadrupol]     -9659.775500

 energy correction for charged system         0.000000 eV
 dipol+quadrupol energy correction           -0.000179 eV
 added-field ion interaction         -0.580232 eV  (added to PSCEN)


 Broyden mixing:
  rms(total) = 0.38121E+01    rms(broyden)= 0.38120E+01
  rms(prec ) = 0.41640E+01
  weight for this iteration     100.00

 eigenvalues of (default mixing * dielectric matrix)
  average eigenvalue GAMMA=   0.3257
  1.1373  0.5439  0.5439  0.2045  0.0566  0.1275  0.1275  0.0951  0.0951

 Free energy of the ion-electron system (eV)
  ---------------------------------------------------
  alpha Z        PSCENC =      1363.16955635
  Ewald energy   TEWEN  =    195514.46079585
  -Hartree energ DENC   =   -246780.82504443
  -exchange      EXHF   =         0.00000000
  -V(xc)+E(xc)   XCENC  =      1051.38086395
  PAW double counting   =     56029.68565969   -58314.54355996
  entropy T*S    EENTRO =        -0.01167614
  eigenvalues    EBANDS =     -1298.30025024
  atomic energy  EATOM  =     52053.40048729
  Solvation  Ediel_sol  =         0.00000000
  ---------------------------------------------------
  free energy    TOTEN  =      -381.58316765 eV

  energy without entropy =     -381.57149151  energy(sigma->0) =     -381.57927560


--------------------------------------------------------------------------------------------------------




--------------------------------------- Iteration      1(  15)  ---------------------------------------


    POTLOK:  cpu time    0.2550: real time    0.2559
    SETDIJ:  cpu time    0.0190: real time    0.0195
    EDDIAG:  cpu time    3.8274: real time    3.8957
  RMM-DIIS:  cpu time   15.0327: real time   15.7102
    ORTHCH:  cpu time    0.6229: real time    0.6465
       DOS:  cpu time    0.0080: real time    0.0080
    CHARGE:  cpu time    1.0068: real time    1.0406
    MIXING:  cpu time    0.0060: real time    0.0065
    --------------------------------------------
      LOOP:  cpu time   20.7778: real time   21.5829

 eigenvalue-minimisations  :  8297
 total energy-change (2. order) : 0.8792743E+00  (-0.6917750E+00)
 number of electron     570.0000020 magnetization     113.6682337
 augmentation part      323.7949407 magnetization      83.3634959

 DIPCOR: dipole corrections for dipol
 direction  3 min pos   228,
 dipolmoment           0.000000      0.000000      0.257094 electrons x Angstroem
 Tr[quadrupol]     -9659.962071

 energy correction for charged system         0.000000 eV
 dipol+quadrupol energy correction           -0.003178 eV
 added-field ion interaction         -9.011125 eV  (added to PSCEN)


 Broyden mixing:
  rms(total) = 0.29034E+01    rms(broyden)= 0.29032E+01
  rms(prec ) = 0.31306E+01
  weight for this iteration     100.00

 eigenvalues of (default mixing * dielectric matrix)
  average eigenvalue GAMMA=   0.3421
  1.2362  0.6335  0.6335  0.2738  0.1461  0.1461  0.0566  0.0974  0.0988  0.0988

 Free energy of the ion-electron system (eV)
  ---------------------------------------------------
  alpha Z        PSCENC =      1354.73566463
  Ewald energy   TEWEN  =    195514.46079585
  -Hartree energ DENC   =   -246787.93801517
  -exchange      EXHF   =         0.00000000
  -V(xc)+E(xc)   XCENC  =      1050.15417176
  PAW double counting   =     56215.25727476   -58504.18315573
  entropy T*S    EENTRO =         0.00681435
  eigenvalues    EBANDS =     -1276.59793111
  atomic energy  EATOM  =     52053.40048729
  Solvation  Ediel_sol  =         0.00000000
  ---------------------------------------------------
  free energy    TOTEN  =      -380.70389336 eV

  energy without entropy =     -380.71070771  energy(sigma->0) =     -380.70616481


--------------------------------------------------------------------------------------------------------




--------------------------------------- Iteration      1(  16)  ---------------------------------------


    POTLOK:  cpu time    0.2540: real time    0.2559
    SETDIJ:  cpu time    0.0190: real time    0.0195
    EDDIAG:  cpu time    3.6664: real time    3.7801
  RMM-DIIS:  cpu time   14.9227: real time   15.4208
    ORTHCH:  cpu time    0.6399: real time    0.6528
       DOS:  cpu time    0.0070: real time    0.0078
    CHARGE:  cpu time    1.0168: real time    1.0261
    MIXING:  cpu time    0.0070: real time    0.0064
    --------------------------------------------
      LOOP:  cpu time   20.5329: real time   21.1695

 eigenvalue-minimisations  :  8298
 total energy-change (2. order) :-0.7379383E+01  (-0.6259956E+00)
 number of electron     570.0000021 magnetization     112.9590844
 augmentation part      324.0015753 magnetization      83.5932443

 DIPCOR: dipole corrections for dipol
 direction  3 min pos   225,
 dipolmoment           0.000000      0.000000      0.295795 electrons x Angstroem
 Tr[quadrupol]     -9660.458042

 energy correction for charged system         0.000000 eV
 dipol+quadrupol energy correction           -0.004206 eV
 added-field ion interaction        -13.605164 eV  (added to PSCEN)


 Broyden mixing:
  rms(total) = 0.32007E+01    rms(broyden)= 0.32007E+01
  rms(prec ) = 0.35380E+01
  weight for this iteration     100.00

 eigenvalues of (default mixing * dielectric matrix)
  average eigenvalue GAMMA=   0.3408
  1.2765  0.6733  0.6733  0.2694  0.2694  0.0566  0.1206  0.1206  0.1076  0.0908
  0.0908

 Free energy of the ion-electron system (eV)
  ---------------------------------------------------
  alpha Z        PSCENC =      1350.14059677
  Ewald energy   TEWEN  =    195514.46079585
  -Hartree energ DENC   =   -246801.31325009
  -exchange      EXHF   =         0.00000000
  -V(xc)+E(xc)   XCENC  =      1047.64470755
  PAW double counting   =     56412.19068238   -58704.56326681
  entropy T*S    EENTRO =         0.02681904
  eigenvalues    EBANDS =     -1260.07084791
  atomic energy  EATOM  =     52053.40048729
  Solvation  Ediel_sol  =         0.00000000
  ---------------------------------------------------
  free energy    TOTEN  =      -388.08327592 eV

  energy without entropy =     -388.11009497  energy(sigma->0) =     -388.09221560


--------------------------------------------------------------------------------------------------------




--------------------------------------- Iteration      1(  17)  ---------------------------------------


    POTLOK:  cpu time    0.2460: real time    0.2513
    SETDIJ:  cpu time    0.0190: real time    0.0188
    EDDIAG:  cpu time    3.7134: real time    3.7345
  RMM-DIIS:  cpu time   14.9357: real time   15.1907
    ORTHCH:  cpu time    0.6229: real time    0.6357
       DOS:  cpu time    0.0080: real time    0.0078
    CHARGE:  cpu time    1.0588: real time    1.0740
    MIXING:  cpu time    0.0080: real time    0.0080
    --------------------------------------------
      LOOP:  cpu time   20.6119: real time   20.9207

 eigenvalue-minimisations  :  8289
 total energy-change (2. order) :-0.2969050E+01  (-0.4431105E+00)
 number of electron     570.0000019 magnetization     112.2378465
 augmentation part      324.5940477 magnetization      82.7165886

 DIPCOR: dipole corrections for dipol
 direction  3 min pos   223,
 dipolmoment           0.000000      0.000000      0.370697 electrons x Angstroem
 Tr[quadrupol]     -9660.899578

 energy correction for charged system         0.000000 eV
 dipol+quadrupol energy correction           -0.006607 eV
 added-field ion interaction        -19.755234 eV  (added to PSCEN)


 Broyden mixing:
  rms(total) = 0.27565E+01    rms(broyden)= 0.27565E+01
  rms(prec ) = 0.30787E+01
  weight for this iteration     100.00

 eigenvalues of (default mixing * dielectric matrix)
  average eigenvalue GAMMA=   0.3537
  1.3261  0.7133  0.7133  0.3851  0.3851  0.1328  0.1328  0.0566  0.1210  0.0948
  0.0948  0.0885

 Free energy of the ion-electron system (eV)
  ---------------------------------------------------
  alpha Z        PSCENC =      1343.98812678
  Ewald energy   TEWEN  =    195514.46079585
  -Hartree energ DENC   =   -246812.15352655
  -exchange      EXHF   =         0.00000000
  -V(xc)+E(xc)   XCENC  =      1046.21890186
  PAW double counting   =     56573.27555145   -58867.04517301
  entropy T*S    EENTRO =         0.02989846
  eigenvalues    EBANDS =     -1243.22738799
  atomic energy  EATOM  =     52053.40048729
  Solvation  Ediel_sol  =         0.00000000
  ---------------------------------------------------
  free energy    TOTEN  =      -391.05232586 eV

  energy without entropy =     -391.08222432  energy(sigma->0) =     -391.06229202


--------------------------------------------------------------------------------------------------------




--------------------------------------- Iteration      1(  18)  ---------------------------------------


    POTLOK:  cpu time    0.2420: real time    0.2511
    SETDIJ:  cpu time    0.0190: real time    0.0188
    EDDIAG:  cpu time    3.7324: real time    3.8257
  RMM-DIIS:  cpu time   15.1257: real time   15.4853
    ORTHCH:  cpu time    0.6689: real time    0.6837
       DOS:  cpu time    0.0070: real time    0.0079
    CHARGE:  cpu time    1.0258: real time    1.0554
    MIXING:  cpu time    0.0070: real time    0.0073
    --------------------------------------------
      LOOP:  cpu time   20.8278: real time   21.3352

 eigenvalue-minimisations  :  8294
 total energy-change (2. order) :-0.3570054E+01  (-0.3268771E+00)
 number of electron     570.0000018 magnetization     111.0696571
 augmentation part      324.0930741 magnetization      82.7670432

 DIPCOR: dipole corrections for dipol
 direction  3 min pos   222,
 dipolmoment           0.000000      0.000000      0.349437 electrons x Angstroem
 Tr[quadrupol]     -9661.721487

 energy correction for charged system         0.000000 eV
 dipol+quadrupol energy correction           -0.005870 eV
 added-field ion interaction        -19.897109 eV  (added to PSCEN)


 Broyden mixing:
  rms(total) = 0.28643E+01    rms(broyden)= 0.28643E+01
  rms(prec ) = 0.31355E+01
  weight for this iteration     100.00

 eigenvalues of (default mixing * dielectric matrix)
  average eigenvalue GAMMA=   0.3732
  1.3544  0.8516  0.8516  0.4745  0.4745  0.1347  0.1347  0.1344  0.0566  0.1053
  0.0942  0.0942  0.0908

 Free energy of the ion-electron system (eV)
  ---------------------------------------------------
  alpha Z        PSCENC =      1343.84698806
  Ewald energy   TEWEN  =    195514.46079585
  -Hartree energ DENC   =   -246839.44884053
  -exchange      EXHF   =         0.00000000
  -V(xc)+E(xc)   XCENC  =      1045.16901271
  PAW double counting   =     56763.63478130   -59061.50621468
  entropy T*S    EENTRO =         0.04283071
  eigenvalues    EBANDS =     -1214.22222069
  atomic energy  EATOM  =     52053.40048729
  Solvation  Ediel_sol  =         0.00000000
  ---------------------------------------------------
  free energy    TOTEN  =      -394.62237997 eV

[...]
   -.681E+02 -.295E+02 0.274E+04   0.685E+02 0.296E+02 -.274E+04   -.323E+00 -.151E+00 -.327E-01   -.203E-03 -.154E-02 0.436E-03
   -.733E+02 -.556E+02 -.273E+04   0.734E+02 0.560E+02 0.273E+04   -.118E+00 -.454E+00 -.113E+00   0.892E-03 0.194E-02 0.651E-03
   0.153E+03 -.180E+02 -.946E+03   -.154E+03 0.181E+02 0.946E+03   0.491E+00 -.218E-01 0.217E+00   -.172E-02 0.138E-02 0.234E-02
   0.154E+02 -.180E+02 0.895E+03   -.154E+02 0.180E+02 -.895E+03   -.423E-01 0.218E-01 -.295E+00   -.326E-03 0.112E-02 0.346E-02
   0.139E+02 -.931E+01 0.961E+03   -.140E+02 0.934E+01 -.961E+03   0.149E+00 0.346E-01 -.390E+00   0.572E-03 -.146E-02 0.115E-02
   -.343E+02 -.774E+01 0.988E+03   0.344E+02 0.781E+01 -.988E+03   -.523E-01 -.257E-01 -.388E+00   0.751E-03 -.274E-03 0.237E-02
   -.715E+02 0.823E+02 0.910E+03   0.716E+02 -.824E+02 -.910E+03   -.870E-01 0.155E+00 -.873E-01   0.681E-03 0.167E-02 0.306E-02
   0.112E+03 -.660E+02 0.102E+04   -.112E+03 0.662E+02 -.102E+04   0.255E+00 -.151E+00 0.527E-01   -.748E-03 0.408E-03 0.229E-02
   -.477E+01 0.947E+02 -.757E+03   0.474E+01 -.953E+02 0.756E+03   0.394E-01 0.605E+00 0.354E+00   -.111E-02 0.435E-03 0.144E-02
   0.349E+01 0.488E-01 0.217E+04   -.338E+01 0.164E+00 -.216E+04   -.220E-01 -.104E+00 -.303E+01   -.159E-02 0.220E-03 0.325E-03
   -.514E+01 -.407E+01 -.218E+04   0.528E+01 0.407E+01 0.218E+04   -.135E+00 -.127E-01 0.188E+01   -.901E-03 -.928E-03 0.282E-03
   0.156E+02 -.322E+02 -.722E+03   -.155E+02 0.322E+02 0.722E+03   -.130E+00 -.857E-02 0.302E-01   0.111E-02 -.719E-03 0.109E-02
   0.873E+02 -.372E+02 0.808E+03   -.877E+02 0.374E+02 -.808E+03   0.497E+00 -.148E+00 -.538E-01   -.220E-03 -.105E-03 0.204E-02
   0.418E+01 0.601E+02 0.221E+04   -.434E+01 -.603E+02 -.220E+04   -.296E-01 0.325E+00 -.272E+01   0.139E-02 0.728E-03 0.109E-02
   0.216E+02 0.756E+02 -.222E+04   -.217E+02 -.759E+02 0.222E+04   0.857E-01 0.322E+00 0.264E+01   0.908E-03 -.190E-02 -.196E-03
   -.437E+02 0.348E+02 0.795E+03   0.438E+02 -.349E+02 -.795E+03   -.218E+00 0.136E+00 -.933E-01   -.217E-02 0.227E-03 0.188E-02
   -.683E+02 -.636E+02 -.790E+03   0.684E+02 0.640E+02 0.790E+03   -.752E-01 -.406E+00 0.115E+00   0.420E-03 0.559E-03 0.141E-02
   -.122E+03 -.792E+01 0.216E+04   0.123E+03 0.796E+01 -.216E+04   -.712E+00 -.167E+00 -.259E+01   -.188E-02 -.855E-03 0.547E-03
   -.111E+03 -.132E+02 -.222E+04   0.112E+03 0.133E+02 0.222E+04   -.102E+01 -.959E-01 0.272E+01   0.264E-04 -.553E-03 0.587E-03
   0.830E+02 -.537E+02 -.741E+03   -.834E+02 0.539E+02 0.741E+03   0.417E+00 -.185E+00 -.385E-02   -.224E-03 0.259E-03 0.184E-02
   0.816E+02 -.377E+02 0.217E+04   -.825E+02 0.378E+02 -.216E+04   0.628E+00 -.244E+00 -.217E+01   -.456E-03 -.641E-03 0.300E-04
   0.397E+02 -.643E+02 -.216E+04   -.405E+02 0.647E+02 0.216E+04   0.855E+00 -.332E+00 0.263E+01   0.121E-03 0.607E-03 0.133E-04
   -.708E+01 -.101E+02 0.786E+03   0.681E+01 0.100E+02 -.787E+03   0.233E+00 0.126E+00 0.127E+00   -.159E-02 -.685E-03 0.176E-02
   0.561E+02 0.965E+01 0.731E+03   -.561E+02 -.981E+01 -.731E+03   -.329E-01 0.343E-01 -.187E+00   0.157E-02 -.116E-02 0.147E-02
   -.125E+03 0.416E+02 -.772E+03   0.125E+03 -.417E+02 0.771E+03   -.496E+00 0.183E+00 0.133E+00   0.111E-02 0.121E-02 0.174E-02
   -.540E+01 0.378E+02 -.797E+03   0.553E+01 -.379E+02 0.797E+03   -.155E+00 0.383E-01 -.368E-01   0.174E-03 0.162E-02 0.199E-02
   -.389E+02 0.154E+02 0.215E+04   0.394E+02 -.155E+02 -.215E+04   -.303E+00 0.525E-01 -.191E+01   -.929E-03 0.509E-03 0.268E-03
   -.573E+02 -.115E+01 -.216E+04   0.578E+02 0.107E+01 0.216E+04   -.495E+00 0.746E-01 0.268E+01   0.605E-03 0.164E-02 0.200E-03
   -.111E+03 0.182E+02 0.720E+03   0.111E+03 -.187E+02 -.720E+03   -.525E+00 0.425E+00 -.320E+00   -.806E-03 -.195E-03 0.136E-02
   0.286E+02 -.413E+02 0.216E+04   -.288E+02 0.420E+02 -.215E+04   0.993E-02 -.614E+00 -.255E+01   0.177E-03 0.949E-03 0.335E-03
   0.554E+02 -.148E+02 -.216E+04   -.556E+02 0.154E+02 0.216E+04   0.231E+00 -.566E+00 0.231E+01   -.423E-03 0.162E-02 0.293E-03
   0.698E+02 -.742E+02 0.220E+04   -.701E+02 0.747E+02 -.219E+04   0.461E+00 -.484E+00 -.224E+01   0.953E-03 -.866E-03 0.306E-03
   0.612E+02 -.684E+02 -.221E+04   -.616E+02 0.690E+02 0.221E+04   0.410E+00 -.546E+00 0.209E+01   -.848E-03 0.949E-03 0.647E-03
   0.796E+02 -.375E+02 0.764E+03   -.796E+02 0.377E+02 -.764E+03   0.108E+00 -.266E+00 -.462E-01   0.644E-03 -.125E-03 0.203E-02
   0.491E+02 -.318E+02 0.221E+04   -.499E+02 0.319E+02 -.221E+04   0.584E+00 -.674E-01 -.245E+01   -.822E-04 -.360E-03 0.329E-03
   0.270E+02 -.145E+02 -.221E+04   -.277E+02 0.147E+02 0.221E+04   0.711E+00 -.168E+00 0.217E+01   0.637E-03 0.169E-03 0.660E-03
   -.369E+02 0.254E+02 0.220E+04   0.377E+02 -.254E+02 -.220E+04   -.689E+00 0.203E-01 -.193E+01   0.676E-03 0.194E-04 0.908E-03
   -.387E+02 0.355E+02 -.219E+04   0.392E+02 -.356E+02 0.219E+04   -.502E+00 0.123E+00 0.205E+01   0.102E-02 0.515E-03 0.297E-03
   -.272E+02 0.664E+02 0.216E+04   0.269E+02 -.670E+02 -.216E+04   0.238E+00 0.521E+00 -.195E+01   0.230E-03 0.130E-02 0.149E-02
   -.119E+02 0.646E+02 -.219E+04   0.117E+02 -.652E+02 0.219E+04   0.229E+00 0.651E+00 0.269E+01   -.464E-04 0.723E-03 -.316E-03
   0.121E+02 0.113E+02 0.216E+04   -.120E+02 -.118E+02 -.216E+04   -.785E-01 0.433E+00 -.217E+01   -.771E-03 0.107E-02 0.108E-02
   0.277E+02 0.169E+02 -.219E+04   -.273E+02 -.173E+02 0.219E+04   -.468E+00 0.428E+00 0.214E+01   -.152E-02 0.248E-03 -.368E-04
   0.153E+01 0.135E+02 0.741E+03   -.145E+01 -.133E+02 -.741E+03   -.691E-01 -.199E+00 -.127E-01   -.601E-03 0.218E-02 0.275E-02
 -----------------------------------------------------------------------------------------------
   0.279E+00 -.160E-01 -.571E+00   0.112E-12 0.529E-12 -.284E-11   -.278E+00 0.247E-01 0.491E+00   0.169E-02 -.309E-02 0.744E-01
 
 
 POSITION                                       TOTAL-FORCE (eV/Angst)
 -----------------------------------------------------------------------------------
     -0.00769      0.01375      6.15289         0.005122     -0.016942     -0.011260
      2.51505     -0.01045      6.16858         0.008883      0.016386     -0.009995
      5.04079      0.03318      6.19045         0.007996     -0.001284     -0.005562
     -1.27227      2.19742      6.16962         0.017775     -0.033738     -0.002506
      1.26885      2.18757      6.15319        -0.024606     -0.002785      0.000748
      2.54422      1.44455      2.05273        -0.019947     -0.133539      0.404905
      2.54915      1.44470      8.15556        -0.004333      0.019113      0.023085
      6.30422      2.19276      6.20916        -0.016134      0.010877     -0.008987
      3.80181      0.73423      4.10363         0.068527     -0.038421     -0.044253
      7.56604      1.45101      2.09205         0.023435      0.020697      0.284275
      7.57257      1.43647      8.19821         0.005299      0.008795      0.011921
      6.31884      0.74108      4.13711        -0.008149      0.016452     -0.004093
     -2.51060      4.36475      6.19493        -0.025154     -0.016632     -0.002232
      5.04518      4.37586      6.16763         0.014138     -0.005498     -0.010173
      3.80277      3.61435      2.06282         0.031074      0.090620      0.291478
      3.79658      3.65395      8.18942        -0.009692      0.012512      0.023327
      2.55462      2.91604      4.10409        -0.055650      0.059520     -0.082521
      6.30075      3.62795      2.09664         0.026541      0.036568      0.331375
      6.31543      3.64282      8.16852        -0.004457     -0.002391      0.044751
      7.58585      2.93043      4.13698         0.011946     -0.043173     -0.196214
     -3.79781      6.55741      6.17991        -0.009056      0.005104      0.010804
     -2.53418      5.82300      2.07647         0.069647     -0.019131      0.414283
     -2.49733      5.83471      8.18216         0.007664     -0.008517      0.019767
      3.81401      6.57068      6.19237         0.010109      0.010002      0.003257
      1.26871      5.10416      4.14860        -0.045071     -0.008044     -0.040330
      6.29450      5.11374      4.13148         0.031669      0.063963     -0.270918
     -2.53139      7.30304      4.11316         0.005867      0.041151     -0.197652
      0.00464      7.28975      4.16047        -0.016407      0.033611     -0.045112
      5.08583      7.28318      4.13084        -0.004031     -0.006804     -0.076595
      7.55365      0.01355      6.21694         0.010424     -0.001473      0.014987
      0.00095      1.48112      2.00000         0.087719      0.108888      0.140365
     -0.00288      1.47839      8.15788         0.008752     -0.006794     -0.001591
      3.76532      2.15723      6.18681        -0.008465     -0.010441     -0.003513
      1.31001      0.72945      4.13000         0.040560      0.039363     -0.261267
      5.08151      1.48100      2.04895        -0.186048      0.133562     -0.021377
      5.07821      1.53649      8.25917        -0.002838     -0.018977     -0.011638
      8.82791      0.75063      4.10326        -0.050291     -0.034876     -0.041717
     -0.02775      4.35064      6.24404         0.012648      0.011470      0.013695
     -1.34500      3.63090      2.07578         0.200641     -0.119737     -0.034644
     -1.32193      3.63872      8.28391         0.006118     -0.004555     -0.007601
      2.54724      4.38324      6.17159        -0.004512      0.000973      0.018991
      1.32920      3.63133      2.06605        -0.270655     -0.077097      0.005509
      1.29534      3.61337      8.25348        -0.006954      0.010672      0.010440
      0.02215      2.94990      4.13311        -0.037310      0.071774     -0.085869
      5.09719      2.93887      4.14370        -0.095273     -0.123941     -0.372939
     -1.31655      6.60386      6.19682        -0.016734      0.003649      0.017277
      1.24842      6.56886      6.20641        -0.031489     -0.024357      0.028109
      0.00782      5.79603      2.11654         0.181018     -0.050319     -0.088074
      0.00791      5.80465      8.31467        -0.002374     -0.004334      0.018796
     -1.29718      5.12819      4.17191         0.064613     -0.025029     -0.093838
      2.54188      5.84536      2.06287        -0.138798      0.090113     -0.158447
      2.54276      5.87760      8.28687         0.030311     -0.010368      0.003518
      5.06524      5.76239      2.05753         0.160992      0.013117      0.124678
      5.09020      5.78246      8.19660         0.000067      0.016236     -0.006126
      3.79261      5.11061      4.12660         0.022879     -0.013961     -0.122012
     -3.78540      7.99724      2.01619        -0.182793     -0.024774      0.095410
     -3.76611      8.00898      8.18128         0.013822      0.011489     -0.004692
     -1.25221      8.01099      2.09289         0.061127      0.035422      0.148196
     -1.21629      8.05131      8.21742         0.005754     -0.018025     -0.016170
      1.24224      8.03556      2.10937        -0.076553     -0.103667     -0.095077
      1.23741      8.02988      8.33601         0.004202      0.009771      0.007149
      3.80728      7.99919      2.05573         0.088025     -0.035547     -0.015794
      3.84394      8.00463      8.25152        -0.006073     -0.000174      0.005796
      2.54183      7.29082      4.15634         0.014482      0.043477     -0.066104
 -----------------------------------------------------------------------------------
    total drift:                                0.002740      0.005578     -0.005478


--------------------------------------------------------------------------------------------------------



  FREE ENERGIE OF THE ION-ELECTRON SYSTEM (eV)
  ---------------------------------------------------
  free  energy   TOTEN  =      -423.92028055 eV

  energy  without entropy=     -423.99627792  energy(sigma->0) =     -423.94561300
 
 d Force = 0.6805573E-02[ 0.183E-02, 0.118E-01]  d Energy = 0.6801061E-02 0.451E-05
 d Force = 0.1576503E+03[ 0.157E+03, 0.158E+03]  d Ewald  = 0.1576504E+03-0.132E-03


--------------------------------------------------------------------------------------------------------


    POTLOK:  cpu time    0.2590: real time    0.2722


--------------------------------------------------------------------------------------------------------


 Conjugate gradient step on ions:
 trial-energy change:   -0.006801  1 .order   -0.006806   -0.011780   -0.001831
  (g-gl).g = 0.497E-02      g.g   = 0.559E-02  gl.gl    = 0.333E-01
 g(Force)  = 0.559E-02   g(Stress)= 0.000E+00 ortho     =-0.276E-03
 gamma     =   0.14939
 trial     =   2.12116
 opt step  =   2.51152  (harmonic =   2.51152) maximal distance =0.01225564
 next E    =  -423.920454   (d E  =  -0.00697)


--------------------------------------------------------------------------------------------------------


  
 reached required accuracy - stopping structural energy minimisation
     LOOP+:  cpu time  473.1171: real time  480.7801
    4ORBIT:  cpu time    0.0000: real time    0.0000
 


 total charge     
 
# of ion       s       p       d       tot
------------------------------------------
    1        0.503   0.505   8.317   9.325
    2        0.508   0.509   8.338   9.355
    3        0.505   0.511   8.312   9.328
    4        0.506   0.506   8.323   9.335
    5        0.510   0.515   8.328   9.353
    6        0.504   0.396   8.310   9.209
    7        0.514   0.416   8.311   9.240
    8        0.502   0.499   8.329   9.330
    9        0.498   0.495   8.318   9.311
   10        0.509   0.405   8.318   9.232
   11        0.516   0.406   8.318   9.239
   12        0.502   0.500   8.318   9.319
   13        0.501   0.500   8.321   9.321
   14        0.506   0.508   8.327   9.341
   15        0.509   0.402   8.314   9.225
   16        0.513   0.408   8.318   9.238
   17        0.507   0.508   8.318   9.332
   18        0.506   0.402   8.324   9.233
   19        0.508   0.401   8.334   9.243
   20        0.502   0.499   8.327   9.328
   21        0.498   0.498   8.321   9.318
   22        0.506   0.397   8.308   9.212
   23        0.512   0.413   8.314   9.239
   24        0.509   0.514   8.317   9.340
   25        0.514   0.523   8.312   9.349
   26        0.500   0.493   8.327   9.320
   27        0.504   0.499   8.326   9.329
   28        0.504   0.507   8.316   9.327
   29        0.502   0.503   8.316   9.322
   30        0.468   0.492   6.190   7.150
   31        0.464   0.379   6.159   7.001
   32        0.468   0.400   6.163   7.031
   33        0.470   0.499   6.177   7.146
   34        0.467   0.488   6.161   7.116
   35        0.467   0.391   6.135   6.993
   36        0.468   0.394   6.138   7.000
   37        0.468   0.489   6.192   7.148
   38        0.473   0.505   6.206   7.184
   39        0.467   0.391   6.147   7.005
   40        0.465   0.387   6.147   7.000
   41        0.469   0.494   6.196   7.160
   42        0.466   0.387   6.161   7.014
   43        0.466   0.390   6.161   7.018
   44        0.470   0.496   6.196   7.162
   45        0.468   0.493   6.174   7.135
   46        0.474   0.500   6.199   7.174
   47        0.470   0.497   6.191   7.158
   48        0.467   0.394   6.165   7.026
   49        0.470   0.397   6.162   7.029
   50        0.471   0.495   6.190   7.155
   51        0.474   0.396   6.183   7.053
   52        0.469   0.391   6.163   7.024
   53        0.466   0.395   6.151   7.011
   54        0.470   0.402   6.140   7.012
   55        0.474   0.496   6.205   7.175
   56        0.464   0.380   6.148   6.992
   57        0.467   0.396   6.157   7.021
   58        0.467   0.390   6.154   7.011
   59        0.473   0.399   6.170   7.041
   60        0.472   0.401   6.174   7.046
   61        0.469   0.389   6.165   7.023
   62        0.470   0.394   6.168   7.032
   63        0.470   0.394   6.167   7.031
   64        0.474   0.500   6.207   7.180
--------------------------------------------------
tot         31.093  28.717 457.243 517.053
 


 magnetization (x)
 
# of ion       s       p       d       tot
------------------------------------------
    1       -0.022  -0.053   0.741   0.666
    2       -0.021  -0.043   0.684   0.619
    3       -0.025  -0.059   0.766   0.682
    4       -0.022  -0.047   0.726   0.657
    5       -0.025  -0.053   0.719   0.641
    6       -0.032  -0.045   0.702   0.625
    7       -0.031  -0.048   0.735   0.656
    8       -0.020  -0.040   0.690   0.631
    9       -0.022  -0.047   0.734   0.666
   10       -0.030  -0.043   0.690   0.617
   11       -0.034  -0.038   0.701   0.629
   12       -0.022  -0.048   0.731   0.661
   13       -0.018  -0.039   0.719   0.662
   14       -0.020  -0.041   0.711   0.650
   15       -0.029  -0.041   0.711   0.642
   16       -0.030  -0.040   0.721   0.651
   17       -0.025  -0.050   0.755   0.680
   18       -0.022  -0.035   0.675   0.618
   19       -0.021  -0.028   0.637   0.588
   20       -0.020  -0.043   0.704   0.641
   21       -0.016  -0.040   0.720   0.664
   22       -0.031  -0.043   0.718   0.644
   23       -0.031  -0.046   0.720   0.643
   24       -0.027  -0.060   0.745   0.658
   25       -0.031  -0.069   0.773   0.672
   26       -0.019  -0.036   0.702   0.647
   27       -0.022  -0.043   0.709   0.645
   28       -0.024  -0.058   0.748   0.666
   29       -0.026  -0.058   0.737   0.653
   30       -0.003  -0.026   2.683   2.654
   31       -0.006  -0.025   2.752   2.721
   32        0.002  -0.021   2.751   2.732
   33        0.003  -0.017   2.746   2.732
   34       -0.001  -0.022   2.778   2.755
   35        0.006  -0.014   2.830   2.822
   36        0.007  -0.013   2.839   2.832
   37       -0.006  -0.029   2.676   2.641
   38       -0.012  -0.043   2.638   2.583
   39       -0.000  -0.022   2.792   2.770
   40        0.003  -0.018   2.798   2.783
   41       -0.004  -0.026   2.683   2.653
   42       -0.000  -0.020   2.743   2.723
   43       -0.003  -0.025   2.756   2.728
   44       -0.009  -0.038   2.664   2.617
   45        0.002  -0.017   2.742   2.727
   46       -0.004  -0.025   2.674   2.645
   47       -0.010  -0.041   2.692   2.642
   48       -0.005  -0.029   2.733   2.700
   49       -0.008  -0.034   2.751   2.708
   50       -0.003  -0.026   2.689   2.660
   51       -0.010  -0.027   2.679   2.643
   52       -0.006  -0.026   2.751   2.719
   53        0.004  -0.020   2.781   2.765
   54        0.006  -0.017   2.821   2.811
   55       -0.004  -0.021   2.658   2.632
   56        0.001  -0.016   2.785   2.770
   57        0.003  -0.018   2.775   2.760
   58        0.003  -0.014   2.775   2.764
   59       -0.001  -0.017   2.747   2.730
   60       -0.005  -0.026   2.709   2.678
   61       -0.005  -0.026   2.753   2.723
   62       -0.006  -0.028   2.722   2.687
   63       -0.004  -0.025   2.740   2.710
   64       -0.009  -0.037   2.633   2.586
--------------------------------------------------
tot         -0.803  -2.186 116.565 113.576
 

 total amount of memory used by VASP MPI-rank0   114060. kBytes
=======================================================================

   base      :      30000. kBytes
   nonlr-proj:      13039. kBytes
   fftplans  :       6403. kBytes
   grid      :      16455. kBytes
   one-center:         93. kBytes
   wavefun   :      48070. kBytes
 
  
  
 General timing and accounting informations for this job:
 ========================================================
  
                  Total CPU time used (sec):     6513.257
                            User time (sec):     6475.865
                          System time (sec):       37.392
                         Elapsed time (sec):     6637.374
  
                   Maximum memory used (kb):      161028.
                   Average memory used (kb):           0.
  
                          Minor page faults:      1688262
                          Major page faults:            0
                 Voluntary context switches:         9254
