SQS-NiFe                                
           1
    10.100310    0.000000    0.000000
    -5.050155    8.747125    0.000000
     0.000000    0.000000   21.301691
   Ni   Fe
  29  35
Direct configuration=     1
   0.00184447  0.00221925  0.28546142
   0.25309867  0.00108086  0.28722498
   0.50071228  0.99654552  0.28717845
   0.00182636  0.24983727  0.28615926
   0.25510318  0.25378370  0.28660806
   0.33446800  0.16514600  0.09636487
   0.33035984  0.16604214  0.38084433
   0.75005392  0.24926552  0.28745423
   0.41837500  0.08394000  0.19264317
   0.83203200  0.16588400  0.09821039
   0.83188677  0.16443351  0.37985374
   0.66797000  0.08472300  0.19421489
   0.00374916  0.50078542  0.28920766
   0.74934969  0.50103122  0.28814933
   0.58310200  0.41320400  0.09683844
   0.58076623  0.41755421  0.37970133
   0.41961000  0.33337100  0.19266495
   0.83119700  0.41475900  0.09842584
   0.83252808  0.41771566  0.38129384
   0.91855900  0.33501600  0.19420908
   0.00428480  0.74959358  0.28766179
   0.08195100  0.66570400  0.09747927
   0.08878236  0.66970162  0.38123866
   0.74563682  0.74553011  0.28717480
   0.41737300  0.58352400  0.19475466
   0.91550800  0.58461900  0.19395095
   0.16682900  0.83490800  0.19309090
   0.41715300  0.83338800  0.19531186
   0.91985100  0.83263700  0.19392075
   0.75024161  0.99126654  0.28656633
   0.08475800  0.16932700  0.09388926
   0.07770045  0.16495930  0.37597303
   0.50989778  0.25524027  0.28726850
   0.17139600  0.08339300  0.19388126
   0.58776100  0.16931300  0.09618717
   0.57187094  0.16111263  0.37478996
   0.91693100  0.08581500  0.19262604
   0.25537011  0.50685273  0.28881579
   0.07438400  0.41509600  0.09744675
   0.09428235  0.41144261  0.37646531
   0.49548422  0.49985394  0.28877896
   0.33917200  0.41514500  0.09699001
   0.33398841  0.42688073  0.37784344
   0.17081400  0.33724200  0.19402731
   0.67264700  0.33598100  0.19452441
   0.25599193  0.74550626  0.28964973
   0.50064715  0.74756483  0.28981400
   0.33208500  0.66262100  0.09936022
   0.33995749  0.67055517  0.37713510
   0.16470600  0.58627100  0.19584874
   0.58579400  0.66826100  0.09684048
   0.57522067  0.66352283  0.37672715
   0.83088100  0.65877500  0.09658990
   0.84420751  0.68307995  0.37791343
   0.66762500  0.58426200  0.19372156
   0.08235500  0.91427100  0.09464942
   0.07781361  0.91237816  0.37684137
   0.33394400  0.91584300  0.09825017
   0.33887088  0.91854103  0.37692341
   0.58231600  0.91865200  0.09902340
   0.58584352  0.91172450  0.37516970
   0.83419400  0.91449400  0.09650569
   0.82829782  0.91725975  0.37571116
   0.66841400  0.83351100  0.19511790
Direct configuration=     2
   0.00230740  0.00117629  0.28497768
   0.25316574  0.00129592  0.28715253
   0.50127588  0.99905176  0.28556291
   0.00108323  0.25009142  0.28563657
   0.25416267  0.25162902  0.28656603
   0.33446800  0.16514600  0.09636487
   0.33035349  0.16659542  0.38033974
   0.75170913  0.24961007  0.28821439
   0.41837500  0.08394000  0.19264317
   0.83203200  0.16588400  0.09821039
   0.83131257  0.16533990  0.37981919
   0.66797000  0.08472300  0.19421489
   0.00188632  0.49941906  0.28924663
   0.75095762  0.50173816  0.28835120
   0.58310200  0.41320400  0.09683844
   0.58199323  0.41783816  0.38064114
   0.41961000  0.33337100  0.19266495
   0.83119700  0.41475900  0.09842584
   0.83272494  0.41728118  0.38109683
   0.91855900  0.33501600  0.19420908
   0.00377925  0.74944152  0.28709690
   0.08195100  0.66570400  0.09747927
   0.08807125  0.66829184  0.38147156
   0.74948448  0.74600202  0.28627669
   0.41737300  0.58352400  0.19475466
   0.91550800  0.58461900  0.19395095
   0.16682900  0.83490800  0.19309090
   0.41715300  0.83338800  0.19531186
   0.91985100  0.83263700  0.19392075
   0.75238678  0.99860002  0.28572726
   0.08475800  0.16932700  0.09388926
   0.08008952  0.16437289  0.37754906
   0.50367908  0.25213629  0.28728946
   0.17139600  0.08339300  0.19388126
   0.58776100  0.16931300  0.09618717
   0.57747343  0.16468389  0.37741943
   0.91693100  0.08581500  0.19262604
   0.24996300  0.50038165  0.28645115
   0.07438400  0.41509600  0.09744675
   0.08816165  0.41347132  0.37884288
   0.49898569  0.49790526  0.28651582
   0.33917200  0.41514500  0.09699001
   0.33336774  0.41989189  0.38044535
   0.17081400  0.33724200  0.19402731
   0.67264700  0.33598100  0.19452441
   0.25123685  0.75033654  0.28834302
   0.50237345  0.74949266  0.28599742
   0.33208500  0.66262100  0.09936022
   0.33582615  0.66983108  0.38142842
   0.16470600  0.58627100  0.19584874
   0.58579400  0.66826100  0.09684048
   0.58181536  0.66554930  0.38012759
   0.83088100  0.65877500  0.09658990
   0.83976409  0.67625728  0.37924148
   0.66762500  0.58426200  0.19372156
   0.08235500  0.91427100  0.09464942
   0.08124671  0.91620985  0.37821142
   0.33394400  0.91584300  0.09825017
   0.33682246  0.91811698  0.37889779
   0.58231600  0.91865200  0.09902340
   0.58568198  0.91594870  0.37898090
   0.83419400  0.91449400  0.09650569
   0.83076735  0.91605028  0.37841869
   0.66841400  0.83351100  0.19511790
Direct configuration=     3
   0.00260549  0.00050470  0.28466619
   0.25320892  0.00143441  0.28710588
   0.50163880  0.00066560  0.28452262
   0.00060470  0.25025507  0.28529999
   0.25355705  0.25024156  0.28653896
   0.33446800  0.16514600  0.09636487
   0.33034939  0.16695170  0.38001482
   0.75277496  0.24983194  0.28870389
   0.41837500  0.08394000  0.19264317
   0.83203200  0.16588400  0.09821039
   0.83094282  0.16592355  0.37979694
   0.66797000  0.08472300  0.19421489
   0.00068678  0.49853922  0.28927173
   0.75199301  0.50219338  0.28848119
   0.58310200  0.41320400  0.09683844
   0.58278334  0.41802100  0.38124631
   0.41961000  0.33337100  0.19266495
   0.83119700  0.41475900  0.09842584
   0.83285171  0.41700141  0.38096997
   0.91855900  0.33501600  0.19420908
   0.00345371  0.74934360  0.28673314
   0.08195100  0.66570400  0.09747927
   0.08761334  0.66738404  0.38162154
   0.75196210  0.74630591  0.28569837
   0.41737300  0.58352400  0.19475466
   0.91550800  0.58461900  0.19395095
   0.16682900  0.83490800  0.19309090
   0.41715300  0.83338800  0.19531186
   0.91985100  0.83263700  0.19392075
   0.75376812  0.00332226  0.28518696
   0.08475800  0.16932700  0.09388926
   0.08162792  0.16399529  0.37856391
   0.49967468  0.25013754  0.28730296
   0.17139600  0.08339300  0.19388126
   0.58776100  0.16931300  0.09618717
   0.58108104  0.16698353  0.37911262
   0.91693100  0.08581500  0.19262604
   0.24648121  0.49621472  0.28492849
   0.07438400  0.41509600  0.09744675
   0.08422036  0.41477766  0.38037388
   0.50124040  0.49665046  0.28505852
   0.33917200  0.41514500  0.09699001
   0.33296808  0.41539156  0.38212080
   0.17081400  0.33724200  0.19402731
   0.67264700  0.33598100  0.19452441
   0.24817492  0.75344690  0.28750159
   0.50348506  0.75073405  0.28353981
   0.33208500  0.66262100  0.09936022
   0.33316585  0.66936482  0.38419301
   0.16470600  0.58627100  0.19584874
   0.58579400  0.66826100  0.09684048
   0.58606188  0.66685420  0.38231723
   0.83088100  0.65877500  0.09658990
   0.83690285  0.67186395  0.38009666
   0.66762500  0.58426200  0.19372156
   0.08235500  0.91427100  0.09464942
   0.08345738  0.91867719  0.37909364
   0.33394400  0.91584300  0.09825017
   0.33550342  0.91784392  0.38016915
   0.58231600  0.91865200  0.09902340
   0.58557795  0.91866879  0.38143505
   0.83419400  0.91449400  0.09650569
   0.83235756  0.91527146  0.38016214
   0.66841400  0.83351100  0.19511790
Direct configuration=     4
   0.00208208  0.00003207  0.28522194
   0.25261863  0.00111123  0.28734641
   0.50188390  0.00235117  0.28551079
   0.00081526  0.25013210  0.28621383
   0.25207627  0.24916818  0.28672672
   0.33446800  0.16514600  0.09636487
   0.33182878  0.16690630  0.38006609
   0.75212493  0.25071987  0.28906363
   0.41837500  0.08394000  0.19264317
   0.83203200  0.16588400  0.09821039
   0.83166766  0.16601455  0.38022659
   0.66797000  0.08472300  0.19421489
   0.00022658  0.49818850  0.28927027
   0.75208965  0.50136824  0.28861341
   0.58310200  0.41320400  0.09683844
   0.58365469  0.41799178  0.38166958
   0.41961000  0.33337100  0.19266495
   0.83119700  0.41475900  0.09842584
   0.83267114  0.41672975  0.38122293
   0.91855900  0.33501600  0.19420908
   0.00241058  0.74968735  0.28744412
   0.08195100  0.66570400  0.09747927
   0.08626539  0.66676352  0.38164594
   0.75397543  0.74847652  0.28639835
   0.41737300  0.58352400  0.19475466
   0.91550800  0.58461900  0.19395095
   0.16682900  0.83490800  0.19309090
   0.41715300  0.83338800  0.19531186
   0.91985100  0.83263700  0.19392075
   0.75384939  0.00463827  0.28653190
   0.08475800  0.16932700  0.09388926
   0.08197714  0.16501201  0.37937431
   0.49744438  0.24777702  0.28790525
   0.17139600  0.08339300  0.19388126
   0.58776100  0.16931300  0.09618717
   0.58416639  0.16998648  0.38063190
   0.91693100  0.08581500  0.19262604
   0.24632629  0.49609445  0.28699436
   0.07438400  0.41509600  0.09744675
   0.08163341  0.41564304  0.38179595
   0.50266897  0.49755596  0.28594029
   0.33917200  0.41514500  0.09699001
   0.33269794  0.41427813  0.38275362
   0.17081400  0.33724200  0.19402731
   0.67264700  0.33598100  0.19452441
   0.24737684  0.75459653  0.28800771
   0.50253334  0.75038757  0.28558157
   0.33208500  0.66262100  0.09936022
   0.33344865  0.66729287  0.38484628
   0.16470600  0.58627100  0.19584874
   0.58579400  0.66826100  0.09684048
   0.58665678  0.66844801  0.38332236
   0.83088100  0.65877500  0.09658990
   0.83602838  0.66760998  0.38099916
   0.66762500  0.58426200  0.19372156
   0.08235500  0.91427100  0.09464942
   0.08420141  0.91862245  0.37997184
   0.33394400  0.91584300  0.09825017
   0.33618636  0.91890851  0.38125344
   0.58231600  0.91865200  0.09902340
   0.58374291  0.91864879  0.38284897
   0.83419400  0.91449400  0.09650569
   0.83367253  0.91490505  0.38123831
   0.66841400  0.83351100  0.19511790
Direct configuration=     5
   0.00091842 -0.00101868  0.28645747
   0.25130630  0.00039274  0.28788115
   0.50242882  0.00609852  0.28770768
   0.00128337  0.24985869  0.28824548
   0.24878420  0.24678181  0.28714415
   0.33446800  0.16514600  0.09636487
   0.33511777  0.16680537  0.38018007
   0.75067977  0.25269391  0.28986340
   0.41837500  0.08394000  0.19264317
   0.83203200  0.16588400  0.09821039
   0.83327912  0.16621688  0.38118178
   0.66797000  0.08472300  0.19421489
  -0.00079653  0.49740878  0.28926704
   0.75230449  0.49953379  0.28890738
   0.58310200  0.41320400  0.09683844
   0.58559189  0.41792682  0.38261058
   0.41961000  0.33337100  0.19266495
   0.83119700  0.41475900  0.09842584
   0.83226971  0.41612577  0.38178530
   0.91855900  0.33501600  0.19420908
   0.00009149  0.75045159  0.28902477
   0.08195100  0.66570400  0.09747927
   0.08326863  0.66538397  0.38170020
   0.75845149  0.75330224  0.28795455
   0.41737300  0.58352400  0.19475466
   0.91550800  0.58461900  0.19395095
   0.16682900  0.83490800  0.19309090
   0.41715300  0.83338800  0.19531186
   0.91985100  0.83263700  0.19392075
   0.75403007  0.00756403  0.28952198
   0.08475800  0.16932700  0.09388926
   0.08275353  0.16727238  0.38117599
   0.49248598  0.24252911  0.28924426
   0.17139600  0.08339300  0.19388126
   0.58776100  0.16931300  0.09618717
   0.59102576  0.17666264  0.38400957
   0.91693100  0.08581500  0.19262604
   0.24598187  0.49582707  0.29158721
   0.07438400  0.41509600  0.09744675
   0.07588208  0.41756695  0.38495752
   0.50584496  0.49956908  0.28790064
   0.33917200  0.41514500  0.09699001
   0.33209737  0.41180273  0.38416052
   0.17081400  0.33724200  0.19402731
   0.67264700  0.33598100  0.19452441
   0.24560254  0.75715241  0.28913291
   0.50041749  0.74961727  0.29012082
   0.33208500  0.66262100  0.09936022
   0.33407736  0.66268649  0.38629863
   0.16470600  0.58627100  0.19584874
   0.58579400  0.66826100  0.09684048
   0.58797935  0.67199137  0.38555696
   0.83088100  0.65877500  0.09658990
   0.83408426  0.65815252  0.38300561
   0.66762500  0.58426200  0.19372156
   0.08235500  0.91427100  0.09464942
   0.08585553  0.91850074  0.38192428
   0.33394400  0.91584300  0.09825017
   0.33770469  0.92127530  0.38366403
   0.58231600  0.91865200  0.09902340
   0.57966323  0.91860433  0.38599242
   0.83419400  0.91449400  0.09650569
   0.83659599  0.91409044  0.38363084
   0.66841400  0.83351100  0.19511790
Direct configuration=     6
   0.00114270  0.00030965  0.28732660
   0.24919263 -0.00093329  0.28825718
   0.50211837  0.00507164  0.28888845
   0.00150542  0.25053090  0.28860872
   0.24867501  0.24781308  0.28748539
   0.33446800  0.16514600  0.09636487
   0.33548869  0.16658369  0.38132423
   0.74991730  0.25237002  0.28994068
   0.41837500  0.08394000  0.19264317
   0.83203200  0.16588400  0.09821039
   0.83309910  0.16559548  0.38262375
   0.66797000  0.08472300  0.19421489
   0.00020002  0.49801001  0.28927665
   0.75098955  0.49974034  0.28861328
   0.58310200  0.41320400  0.09683844
   0.58477396  0.41777717  0.38310313
   0.41961000  0.33337100  0.19266495
   0.83119700  0.41475900  0.09842584
   0.83268351  0.41570258  0.38259360
   0.91855900  0.33501600  0.19420908
  -0.00065699  0.75032197  0.28944666
   0.08195100  0.66570400  0.09747927
   0.08447025  0.66643077  0.38223637
   0.75672141  0.75302686  0.28912227
   0.41737300  0.58352400  0.19475466
   0.91550800  0.58461900  0.19395095
   0.16682900  0.83490800  0.19309090
   0.41715300  0.83338800  0.19531186
   0.91985100  0.83263700  0.19392075
   0.75162117  0.00468049  0.29024619
   0.08475800  0.16932700  0.09388926
   0.08288468  0.16822598  0.38174349
   0.49445544  0.24446912  0.28928059
   0.17139600  0.08339300  0.19388126
   0.58776100  0.16931300  0.09618717
   0.59175839  0.17709315  0.38544288
   0.91693100  0.08581500  0.19262604
   0.24670704  0.49690435  0.29235977
   0.07438400  0.41509600  0.09744675
   0.07554985  0.41729787  0.38647106
   0.50528993  0.49996810  0.28876805
   0.33917200  0.41514500  0.09699001
   0.33301566  0.41160865  0.38495309
   0.17081400  0.33724200  0.19402731
   0.67264700  0.33598100  0.19452441
   0.24693068  0.75615704  0.29008529
   0.50000924  0.75035640  0.29066015
   0.33208500  0.66262100  0.09936022
   0.33273208  0.66236512  0.38721734
   0.16470600  0.58627100  0.19584874
   0.58579400  0.66826100  0.09684048
   0.58852226  0.67208555  0.38651864
   0.83088100  0.65877500  0.09658990
   0.83413383  0.65867179  0.38376040
   0.66762500  0.58426200  0.19372156
   0.08235500  0.91427100  0.09464942
   0.08542138  0.91689908  0.38263905
   0.33394400  0.91584300  0.09825017
   0.33835371  0.92103781  0.38432768
   0.58231600  0.91865200  0.09902340
   0.58001512  0.91919949  0.38752233
   0.83419400  0.91449400  0.09650569
   0.83710396  0.91403546  0.38461161
   0.66841400  0.83351100  0.19511790
Direct configuration=     7
   0.00135806  0.00158520  0.28816121
   0.24716292 -0.00220666  0.28861827
   0.50182026  0.00408555  0.29002231
   0.00171864  0.25117641  0.28895753
   0.24857015  0.24880339  0.28781307
   0.33446800  0.16514600  0.09636487
   0.33584487  0.16637082  0.38242293
   0.74918512  0.25205900  0.29001488
   0.41837500  0.08394000  0.19264317
   0.83203200  0.16588400  0.09821039
   0.83292624  0.16499877  0.38400844
   0.66797000  0.08472300  0.19421489
   0.00115697  0.49858737  0.28928588
   0.74972685  0.49993869  0.28833087
   0.58310200  0.41320400  0.09683844
   0.58398853  0.41763346  0.38357611
   0.41961000  0.33337100  0.19266495
   0.83119700  0.41475900  0.09842584
   0.83308087  0.41529619  0.38336980
   0.91855900  0.33501600  0.19420908
  -0.00137574  0.75019749  0.28985179
   0.08195100  0.66570400  0.09747927
   0.08562414  0.66743599  0.38275124
   0.75506005  0.75276242  0.29024359
   0.41737300  0.58352400  0.19475466
   0.91550800  0.58461900  0.19395095
   0.16682900  0.83490800  0.19309090
   0.41715300  0.83338800  0.19531186
   0.91985100  0.83263700  0.19392075
   0.74930796  0.00191150  0.29094164
   0.08475800  0.16932700  0.09388926
   0.08301062  0.16914170  0.38228845
   0.49634666  0.24633208  0.28931548
   0.17139600  0.08339300  0.19388126
   0.58776100  0.16931300  0.09618717
   0.59246192  0.17750656  0.38681926
   0.91693100  0.08581500  0.19262604
   0.24740341  0.49793884  0.29310164
   0.07438400  0.41509600  0.09744675
   0.07523082  0.41703948  0.38792448
   0.50475695  0.50035126  0.28960101
   0.33917200  0.41514500  0.09699001
   0.33389747  0.41142228  0.38571417
   0.17081400  0.33724200  0.19402731
   0.67264700  0.33598100  0.19452441
   0.24820606  0.75520121  0.29099985
   0.49961720  0.75106616  0.29117806
   0.33208500  0.66262100  0.09936022
   0.33144024  0.66205651  0.38809955
   0.16470600  0.58627100  0.19584874
   0.58579400  0.66826100  0.09684048
   0.58904361  0.67217599  0.38744211
   0.83088100  0.65877500  0.09658990
   0.83418142  0.65917044  0.38448521
   0.66762500  0.58426200  0.19372156
   0.08235500  0.91427100  0.09464942
   0.08500449  0.91536104  0.38332542
   0.33394400  0.91584300  0.09825017
   0.33897694  0.92080976  0.38496498
   0.58231600  0.91865200  0.09902340
   0.58035304  0.91977100  0.38899148
   0.83419400  0.91449400  0.09650569
   0.83759175  0.91398267  0.38555343
   0.66841400  0.83351100  0.19511790
Direct configuration=     8
   0.00064318  0.00202072  0.28863682
   0.24797628 -0.00161655  0.28931122
   0.50099411  0.00373007  0.29044670
   0.00027177  0.25130792  0.28929389
   0.25018294  0.24982712  0.28838564
   0.33446800  0.16514600  0.09636487
   0.33541720  0.16544489  0.38259387
   0.74964565  0.25113758  0.29082478
   0.41837500  0.08394000  0.19264317
   0.83203200  0.16588400  0.09821039
   0.83218973  0.16428164  0.38452350
   0.66797000  0.08472300  0.19421489
   0.00106084  0.49890661  0.29011088
   0.74992186  0.50066308  0.28896438
   0.58310200  0.41320400  0.09683844
   0.58430102  0.41753419  0.38414967
   0.41961000  0.33337100  0.19266495
   0.83119700  0.41475900  0.09842584
   0.83348676  0.41601163  0.38335513
   0.91855900  0.33501600  0.19420908
  -0.00166496  0.74939138  0.28996393
   0.08195100  0.66570400  0.09747927
   0.08602042  0.66738461  0.38350718
   0.75357885  0.75157756  0.29054498
   0.41737300  0.58352400  0.19475466
   0.91550800  0.58461900  0.19395095
   0.16682900  0.83490800  0.19309090
   0.41715300  0.83338800  0.19531186
   0.91985100  0.83263700  0.19392075
   0.74877227  0.00152636  0.29144844
   0.08475800  0.16932700  0.09388926
   0.08349455  0.16915820  0.38272389
   0.49608550  0.24642985  0.28990196
   0.17139600  0.08339300  0.19388126
   0.58776100  0.16931300  0.09618717
   0.59145436  0.17649966  0.38747805
   0.91693100  0.08581500  0.19262604
   0.24722104  0.49779308  0.29295216
   0.07438400  0.41509600  0.09744675
   0.07611460  0.41646198  0.38866257
   0.50318318  0.50094994  0.28955175
   0.33917200  0.41514500  0.09699001
   0.33449994  0.41219029  0.38667628
   0.17081400  0.33724200  0.19402731
   0.67264700  0.33598100  0.19452441
   0.24807395  0.75510687  0.29090289
   0.49960046  0.75096977  0.29096772
   0.33208500  0.66262100  0.09936022
   0.33161974  0.66274313  0.38942024
   0.16470600  0.58627100  0.19584874
   0.58579400  0.66826100  0.09684048
   0.58842035  0.67207046  0.38837869
   0.83088100  0.65877500  0.09658990
   0.83434910  0.66012081  0.38469036
   0.66762500  0.58426200  0.19372156
   0.08235500  0.91427100  0.09464942
   0.08494186  0.91524024  0.38381881
   0.33394400  0.91584300  0.09825017
   0.33945271  0.92091838  0.38541785
   0.58231600  0.91865200  0.09902340
   0.58136039  0.91921357  0.39043425
   0.83419400  0.91449400  0.09650569
   0.83789648  0.91472736  0.38658217
   0.66841400  0.83351100  0.19511790
Direct configuration=     9
   0.00031718  0.00221931  0.28885370
   0.24834718 -0.00134746  0.28962722
   0.50061737  0.00356797  0.29064023
  -0.00038802  0.25136788  0.28944727
   0.25091838  0.25029396  0.28864674
   0.33446800  0.16514600  0.09636487
   0.33522219  0.16502265  0.38267182
   0.74985566  0.25071741  0.29119411
   0.41837500  0.08394000  0.19264317
   0.83203200  0.16588400  0.09821039
   0.83185387  0.16395463  0.38475837
   0.66797000  0.08472300  0.19421489
   0.00101701  0.49905218  0.29048709
   0.75001079  0.50099340  0.28925326
   0.58310200  0.41320400  0.09683844
   0.58444352  0.41748893  0.38441122
   0.41961000  0.33337100  0.19266495
   0.83119700  0.41475900  0.09842584
   0.83367185  0.41633787  0.38334844
   0.91855900  0.33501600  0.19420908
  -0.00179685  0.74902379  0.29001507
   0.08195100  0.66570400  0.09747927
   0.08620113  0.66736118  0.38385189
   0.75290341  0.75103726  0.29068241
   0.41737300  0.58352400  0.19475466
   0.91550800  0.58461900  0.19395095
   0.16682900  0.83490800  0.19309090
   0.41715300  0.83338800  0.19531186
   0.91985100  0.83263700  0.19392075
   0.74852799  0.00135073  0.29167954
   0.08475800  0.16932700  0.09388926
   0.08371522  0.16916572  0.38292246
   0.49596641  0.24647444  0.29016940
   0.17139600  0.08339300  0.19388126
   0.58776100  0.16931300  0.09618717
   0.59099491  0.17604051  0.38777847
   0.91693100  0.08581500  0.19262604
   0.24713788  0.49772661  0.29288399
   0.07438400  0.41509600  0.09744675
   0.07651761  0.41619864  0.38899915
   0.50246553  0.50122294  0.28952928
   0.33917200  0.41514500  0.09699001
   0.33477467  0.41254051  0.38711501
   0.17081400  0.33724200  0.19402731
   0.67264700  0.33598100  0.19452441
   0.24801371  0.75506385  0.29085867
   0.49959282  0.75092582  0.29087180
   0.33208500  0.66262100  0.09936022
   0.33170160  0.66305623  0.39002248
   0.16470600  0.58627100  0.19584874
   0.58579400  0.66826100  0.09684048
   0.58813614  0.67202234  0.38880578
   0.83088100  0.65877500  0.09658990
   0.83442556  0.66055418  0.38478391
   0.66762500  0.58426200  0.19372156
   0.08235500  0.91427100  0.09464942
   0.08491330  0.91518516  0.38404380
   0.33394400  0.91584300  0.09825017
   0.33966967  0.92096791  0.38562436
   0.58231600  0.91865200  0.09902340
   0.58181976  0.91895938  0.39109217
   0.83419400  0.91449400  0.09650569
   0.83803545  0.91506695  0.38705129
   0.66841400  0.83351100  0.19511790
Direct configuration=    10
   0.00002491  0.00157192  0.28884509
   0.24840929 -0.00119496  0.28958172
   0.50096960  0.00379305  0.29060861
  -0.00035535  0.25121572  0.28963072
   0.25066981  0.25009060  0.28885923
   0.33446800  0.16514600  0.09636487
   0.33496497  0.16516236  0.38285997
   0.74950265  0.25068365  0.29148649
   0.41837500  0.08394000  0.19264317
   0.83203200  0.16588400  0.09821039
   0.83184725  0.16422197  0.38486195
   0.66797000  0.08472300  0.19421489
   0.00093027  0.49899301  0.29081887
   0.74963897  0.50026306  0.28953721
   0.58310200  0.41320400  0.09683844
   0.58475374  0.41773173  0.38444939
   0.41961000  0.33337100  0.19266495
   0.83119700  0.41475900  0.09842584
   0.83350004  0.41645883  0.38346807
   0.91855900  0.33501600  0.19420908
  -0.00117668  0.74966461  0.29011353
   0.08195100  0.66570400  0.09747927
   0.08626868  0.66704355  0.38410853
   0.75320424  0.75118201  0.29069871
   0.41737300  0.58352400  0.19475466
   0.91550800  0.58461900  0.19395095
   0.16682900  0.83490800  0.19309090
   0.41715300  0.83338800  0.19531186
   0.91985100  0.83263700  0.19392075
   0.74863750  0.00154921  0.29185211
   0.08475800  0.16932700  0.09388926
   0.08422156  0.16901438  0.38296856
   0.49610340  0.24662106  0.29043757
   0.17139600  0.08339300  0.19388126
   0.58776100  0.16931300  0.09618717
   0.59060578  0.17565665  0.38772357
   0.91693100  0.08581500  0.19262604
   0.24594166  0.49737887  0.29312410
   0.07438400  0.41509600  0.09744675
   0.07711551  0.41599063  0.38888499
   0.50274732  0.50110644  0.28972324
   0.33917200  0.41514500  0.09699001
   0.33479402  0.41309223  0.38745645
   0.17081400  0.33724200  0.19402731
   0.67264700  0.33598100  0.19452441
   0.24713932  0.75497435  0.29090726
   0.49908954  0.75097396  0.29135772
   0.33208500  0.66262100  0.09936022
   0.33258682  0.66360704  0.39032888
   0.16470600  0.58627100  0.19584874
   0.58579400  0.66826100  0.09684048
   0.58772359  0.67194612  0.38902423
   0.83088100  0.65877500  0.09658990
   0.83449940  0.66106946  0.38478658
   0.66762500  0.58426200  0.19372156
   0.08235500  0.91427100  0.09464942
   0.08493504  0.91561237  0.38406719
   0.33394400  0.91584300  0.09825017
   0.33980517  0.92045248  0.38576392
   0.58231600  0.91865200  0.09902340
   0.58151263  0.91800194  0.39133109
   0.83419400  0.91449400  0.09650569
   0.83813477  0.91511588  0.38736462
   0.66841400  0.83351100  0.19511790
