  64  64   1   0
  0.2882617E+02  0.1002677E-08  0.1002677E-08  0.2118918E-08  0.5000000E-15
  1.000000000000000E-004
  CAR 
 SQS-NiFe                                
      9.93422154    -10.18011489  301      0.29851841      1.00000000
    -10.180  0.0000E+00  0.0000E+00  0.0000E+00  0.0000E+00
    -10.113  0.0000E+00  0.0000E+00  0.0000E+00  0.0000E+00
    -10.046  0.0000E+00  0.0000E+00  0.0000E+00  0.0000E+00
     -9.979  0.0000E+00  0.0000E+00  0.0000E+00  0.0000E+00
     -9.912  0.0000E+00  0.0000E+00  0.0000E+00  0.0000E+00
     -9.845 -0.3192E-31  0.0000E+00 -0.2140E-32  0.0000E+00
     -9.778 -0.7232E-29 -0.2696E-30 -0.4870E-30 -0.1808E-31
     -9.711 -0.1311E-26 -0.5592E-28 -0.8836E-28 -0.3768E-29
     -9.644 -0.1893E-24 -0.9281E-26 -0.1278E-25 -0.6260E-27
     -9.577 -0.2178E-22 -0.1227E-23 -0.1473E-23 -0.8291E-25
     -9.510 -0.1996E-20 -0.1293E-21 -0.1353E-21 -0.8752E-23
     -9.443 -0.1457E-18 -0.1085E-19 -0.9904E-20 -0.7360E-21
     -9.376 -0.8462E-17 -0.7245E-18 -0.5772E-18 -0.4931E-19
     -9.308 -0.3788E-15 -0.3757E-16 -0.2598E-16 -0.2569E-17
     -9.241 -0.1385E-13 -0.1574E-14 -0.9548E-15 -0.1081E-15
     -9.174 -0.4021E-12 -0.5265E-13 -0.2792E-13 -0.3638E-14
     -9.107 -0.9251E-11 -0.1396E-11 -0.6482E-12 -0.9727E-13
     -9.040 -0.1684E-09 -0.2934E-10 -0.1194E-10 -0.2065E-11
     -8.973 -0.2421E-08 -0.4875E-09 -0.1743E-09 -0.3475E-10
     -8.906 -0.2740E-07 -0.6390E-08 -0.2011E-08 -0.4632E-09
     -8.839 -0.2432E-06 -0.6585E-07 -0.1832E-07 -0.4878E-08
     -8.772 -0.1683E-05 -0.5310E-06 -0.1312E-06 -0.4048E-07
     -8.705 -0.9002E-05 -0.3329E-05 -0.7347E-06 -0.2637E-06
     -8.638 -0.3672E-04 -0.1606E-04 -0.3197E-05 -0.1341E-05
     -8.571 -0.1115E-03 -0.5865E-04 -0.1068E-04 -0.5273E-05
     -8.504 -0.2408E-03 -0.1573E-03 -0.2682E-04 -0.1582E-04
     -8.437 -0.3258E-03 -0.2902E-03 -0.4867E-04 -0.3527E-04
     -8.370 -0.1222E-03 -0.2975E-03 -0.5686E-04 -0.5522E-04
     -8.303  0.5867E-03  0.8620E-04 -0.1752E-04 -0.4944E-04
     -8.236  0.1867E-02  0.1007E-02  0.1077E-03  0.1807E-04
     -8.169  0.4221E-02  0.2591E-02  0.3907E-03  0.1918E-03
     -8.102  0.9156E-02  0.5749E-02  0.1005E-02  0.5773E-03
     -8.035  0.1739E-01  0.1206E-01  0.2170E-02  0.1386E-02
     -7.968  0.2558E-01  0.2094E-01  0.3886E-02  0.2790E-02
     -7.900  0.2744E-01  0.2735E-01  0.5726E-02  0.4623E-02
     -7.833  0.2036E-01  0.2561E-01  0.7091E-02  0.6341E-02
     -7.766  0.9263E-02  0.1615E-01  0.7712E-02  0.7424E-02
     -7.699  0.2384E-02  0.6061E-02  0.7872E-02  0.7830E-02
     -7.632  0.4450E-02  0.2588E-02  0.8170E-02  0.8004E-02
     -7.565  0.1383E-01  0.7529E-02  0.9098E-02  0.8509E-02
     -7.498  0.2445E-01  0.1703E-01  0.1074E-01  0.9650E-02
     -7.431  0.3106E-01  0.2554E-01  0.1282E-01  0.1136E-01
     -7.364  0.3330E-01  0.3050E-01  0.1505E-01  0.1341E-01
     -7.297  0.3301E-01  0.3288E-01  0.1727E-01  0.1561E-01
     -7.230  0.2944E-01  0.3287E-01  0.1924E-01  0.1782E-01
     -7.163  0.2100E-01  0.2814E-01  0.2065E-01  0.1970E-01
     -7.096  0.1000E-01  0.1822E-01  0.2132E-01  0.2092E-01
     -7.029  0.1257E-02  0.7201E-02  0.2140E-01  0.2141E-01
     -6.962 -0.2680E-02 -0.1795E-03  0.2122E-01  0.2140E-01
     -6.895 -0.1174E-02 -0.2560E-02  0.2114E-01  0.2122E-01
     -6.828  0.8769E-02  0.2967E-03  0.2173E-01  0.2124E-01
     -6.761  0.3110E-01  0.1162E-01  0.2382E-01  0.2202E-01
     -6.694  0.6098E-01  0.3466E-01  0.2791E-01  0.2435E-01
     -6.627  0.8073E-01  0.6316E-01  0.3332E-01  0.2858E-01
     -6.560  0.7447E-01  0.7969E-01  0.3831E-01  0.3392E-01
     -6.492  0.4736E-01  0.7099E-01  0.4149E-01  0.3868E-01
     -6.425  0.2278E-01  0.4414E-01  0.4301E-01  0.4164E-01
     -6.358  0.1923E-01  0.2120E-01  0.4430E-01  0.4307E-01
     -6.291  0.3434E-01  0.1817E-01  0.4661E-01  0.4428E-01
     -6.224  0.5112E-01  0.3233E-01  0.5003E-01  0.4645E-01
     -6.157  0.5615E-01  0.4865E-01  0.5380E-01  0.4971E-01
     -6.090  0.4941E-01  0.5512E-01  0.5711E-01  0.5341E-01
     -6.023  0.3765E-01  0.5076E-01  0.5964E-01  0.5681E-01
     -5.956  0.2483E-01  0.4050E-01  0.6130E-01  0.5953E-01
     -5.889  0.1324E-01  0.2765E-01  0.6219E-01  0.6138E-01
     -5.822  0.8427E-02  0.1441E-01  0.6275E-01  0.6235E-01
     -5.755  0.1709E-01  0.5377E-02  0.6390E-01  0.6271E-01
     -5.688  0.4095E-01  0.6079E-02  0.6665E-01  0.6312E-01
     -5.621  0.7347E-01  0.1951E-01  0.7157E-01  0.6442E-01
     -5.554  0.1007E+00  0.4537E-01  0.7832E-01  0.6747E-01
     -5.487  0.1075E+00  0.7841E-01  0.8553E-01  0.7272E-01
     -5.420  0.9054E-01  0.1051E+00  0.9160E-01  0.7977E-01
     -5.353  0.6538E-01  0.1086E+00  0.9598E-01  0.8706E-01
     -5.286  0.5362E-01  0.8439E-01  0.9957E-01  0.9271E-01
     -5.219  0.6054E-01  0.4911E-01  0.1036E+00  0.9601E-01
     -5.152  0.6973E-01  0.2748E-01  0.1083E+00  0.9785E-01
     -5.084  0.6200E-01  0.3082E-01  0.1125E+00  0.9991E-01
     -5.017  0.3692E-01  0.5011E-01  0.1149E+00  0.1033E+00
     -4.950  0.1633E-01  0.6637E-01  0.1160E+00  0.1077E+00
     -4.883  0.2989E-01  0.6533E-01  0.1180E+00  0.1121E+00
     -4.816  0.9156E-01  0.4610E-01  0.1242E+00  0.1152E+00
     -4.749  0.1817E+00  0.2110E-01  0.1364E+00  0.1166E+00
     -4.682  0.2562E+00  0.9440E-02  0.1535E+00  0.1172E+00
     -4.615  0.2833E+00  0.2704E-01  0.1725E+00  0.1191E+00
     -4.548  0.2699E+00  0.7564E-01  0.1906E+00  0.1241E+00
     -4.481  0.2466E+00  0.1365E+00  0.2072E+00  0.1333E+00
     -4.414  0.2335E+00  0.1792E+00  0.2228E+00  0.1453E+00
     -4.347  0.2330E+00  0.1845E+00  0.2384E+00  0.1577E+00
     -4.280  0.2460E+00  0.1573E+00  0.2549E+00  0.1682E+00
     -4.213  0.2777E+00  0.1174E+00  0.2736E+00  0.1761E+00
     -4.146  0.3235E+00  0.8171E-01  0.2952E+00  0.1816E+00
     -4.079  0.3663E+00  0.5835E-01  0.3198E+00  0.1855E+00
     -4.012  0.3976E+00  0.5118E-01  0.3465E+00  0.1889E+00
     -3.945  0.4292E+00  0.6594E-01  0.3752E+00  0.1933E+00
     -3.878  0.4750E+00  0.1091E+00  0.4071E+00  0.2006E+00
     -3.811  0.5294E+00  0.1776E+00  0.4426E+00  0.2125E+00
     -3.744  0.5699E+00  0.2509E+00  0.4808E+00  0.2294E+00
     -3.676  0.5783E+00  0.2989E+00  0.5196E+00  0.2494E+00
     -3.609  0.5575E+00  0.3043E+00  0.5569E+00  0.2698E+00
     -3.542  0.5297E+00  0.2757E+00  0.5925E+00  0.2883E+00
     -3.475  0.5171E+00  0.2417E+00  0.6271E+00  0.3045E+00
     -3.408  0.5244E+00  0.2320E+00  0.6623E+00  0.3201E+00
     -3.341  0.5400E+00  0.2538E+00  0.6985E+00  0.3371E+00
     -3.274  0.5519E+00  0.2853E+00  0.7355E+00  0.3562E+00
     -3.207  0.5569E+00  0.3029E+00  0.7728E+00  0.3765E+00
     -3.140  0.5564E+00  0.3136E+00  0.8101E+00  0.3975E+00
     -3.073  0.5536E+00  0.3447E+00  0.8473E+00  0.4207E+00
     -3.006  0.5528E+00  0.4037E+00  0.8843E+00  0.4477E+00
     -2.939  0.5554E+00  0.4640E+00  0.9216E+00  0.4788E+00
     -2.872  0.5556E+00  0.4912E+00  0.9588E+00  0.5118E+00
     -2.805  0.5477E+00  0.4775E+00  0.9955E+00  0.5438E+00
     -2.738  0.5364E+00  0.4472E+00  0.1032E+01  0.5738E+00
     -2.671  0.5369E+00  0.4322E+00  0.1068E+01  0.6027E+00
     -2.604  0.5637E+00  0.4458E+00  0.1105E+01  0.6326E+00
     -2.537  0.6166E+00  0.4760E+00  0.1147E+01  0.6646E+00
     -2.470  0.6818E+00  0.4988E+00  0.1192E+01  0.6980E+00
     -2.403  0.7472E+00  0.5005E+00  0.1242E+01  0.7315E+00
     -2.336  0.8119E+00  0.4876E+00  0.1297E+01  0.7642E+00
     -2.268  0.8777E+00  0.4765E+00  0.1356E+01  0.7962E+00
     -2.201  0.9398E+00  0.4769E+00  0.1419E+01  0.8282E+00
     -2.134  0.9917E+00  0.4895E+00  0.1485E+01  0.8610E+00
     -2.067  0.1035E+01  0.5091E+00  0.1555E+01  0.8951E+00
     -2.000  0.1076E+01  0.5268E+00  0.1627E+01  0.9304E+00
     -1.933  0.1108E+01  0.5338E+00  0.1701E+01  0.9662E+00
     -1.866  0.1106E+01  0.5299E+00  0.1775E+01  0.1002E+01
     -1.799  0.1046E+01  0.5239E+00  0.1845E+01  0.1037E+01
     -1.732  0.9375E+00  0.5283E+00  0.1908E+01  0.1072E+01
     -1.665  0.8275E+00  0.5541E+00  0.1964E+01  0.1109E+01
     -1.598  0.7726E+00  0.6042E+00  0.2016E+01  0.1150E+01
     -1.531  0.7922E+00  0.6712E+00  0.2069E+01  0.1195E+01
     -1.464  0.8525E+00  0.7431E+00  0.2126E+01  0.1245E+01
     -1.397  0.8965E+00  0.8115E+00  0.2186E+01  0.1299E+01
     -1.330  0.8919E+00  0.8768E+00  0.2246E+01  0.1358E+01
     -1.263  0.8504E+00  0.9450E+00  0.2303E+01  0.1421E+01
     -1.196  0.8086E+00  0.1016E+01  0.2357E+01  0.1489E+01
     -1.129  0.7985E+00  0.1076E+01  0.2410E+01  0.1562E+01
     -1.062  0.8351E+00  0.1099E+01  0.2466E+01  0.1635E+01
     -0.995  0.9122E+00  0.1072E+01  0.2528E+01  0.1707E+01
     -0.928  0.9991E+00  0.1003E+01  0.2595E+01  0.1774E+01
     -0.860  0.1051E+01  0.9190E+00  0.2665E+01  0.1836E+01
     -0.793  0.1045E+01  0.8452E+00  0.2735E+01  0.1893E+01
     -0.726  0.1010E+01  0.7954E+00  0.2803E+01  0.1946E+01
     -0.659  0.1015E+01  0.7714E+00  0.2871E+01  0.1998E+01
     -0.592  0.1105E+01  0.7654E+00  0.2945E+01  0.2049E+01
     -0.525  0.1254E+01  0.7612E+00  0.3029E+01  0.2100E+01
     -0.458  0.1367E+01  0.7445E+00  0.3121E+01  0.2150E+01
     -0.391  0.1349E+01  0.7164E+00  0.3211E+01  0.2198E+01
     -0.324  0.1162E+01  0.6940E+00  0.3289E+01  0.2245E+01
     -0.257  0.8479E+00  0.6948E+00  0.3346E+01  0.2291E+01
     -0.190  0.5124E+00  0.7205E+00  0.3380E+01  0.2340E+01
     -0.123  0.2606E+00  0.7567E+00  0.3398E+01  0.2390E+01
     -0.056  0.1380E+00  0.7837E+00  0.3407E+01  0.2443E+01
      0.011  0.1161E+00  0.7883E+00  0.3415E+01  0.2496E+01
      0.078  0.1334E+00  0.7711E+00  0.3424E+01  0.2547E+01
      0.145  0.1455E+00  0.7448E+00  0.3434E+01  0.2597E+01
      0.212  0.1413E+00  0.7246E+00  0.3443E+01  0.2646E+01
      0.279  0.1293E+00  0.7160E+00  0.3452E+01  0.2694E+01
      0.346  0.1200E+00  0.7119E+00  0.3460E+01  0.2742E+01
      0.413  0.1159E+00  0.7009E+00  0.3468E+01  0.2789E+01
      0.480  0.1151E+00  0.6772E+00  0.3475E+01  0.2834E+01
      0.548  0.1178E+00  0.6443E+00  0.3483E+01  0.2877E+01
      0.615  0.1216E+00  0.6107E+00  0.3491E+01  0.2918E+01
      0.682  0.1185E+00  0.5831E+00  0.3499E+01  0.2957E+01
      0.749  0.1046E+00  0.5612E+00  0.3506E+01  0.2995E+01
      0.816  0.8709E-01  0.5398E+00  0.3512E+01  0.3031E+01
      0.883  0.7438E-01  0.5172E+00  0.3517E+01  0.3066E+01
      0.950  0.6948E-01  0.4989E+00  0.3522E+01  0.3099E+01
      1.017  0.7417E-01  0.4918E+00  0.3527E+01  0.3132E+01
      1.084  0.8864E-01  0.4961E+00  0.3533E+01  0.3165E+01
      1.151  0.1066E+00  0.5051E+00  0.3540E+01  0.3199E+01
      1.218  0.1193E+00  0.5110E+00  0.3548E+01  0.3234E+01
      1.285  0.1198E+00  0.5089E+00  0.3556E+01  0.3268E+01
      1.352  0.1030E+00  0.4982E+00  0.3563E+01  0.3301E+01
      1.419  0.6915E-01  0.4807E+00  0.3567E+01  0.3333E+01
      1.486  0.3370E-01  0.4575E+00  0.3570E+01  0.3364E+01
      1.553  0.2403E-01  0.4288E+00  0.3571E+01  0.3393E+01
      1.620  0.5811E-01  0.3951E+00  0.3575E+01  0.3419E+01
      1.687  0.1253E+00  0.3584E+00  0.3584E+01  0.3443E+01
      1.754  0.1915E+00  0.3223E+00  0.3596E+01  0.3465E+01
      1.821  0.2267E+00  0.2894E+00  0.3612E+01  0.3484E+01
      1.888  0.2245E+00  0.2588E+00  0.3627E+01  0.3502E+01
      1.956  0.1961E+00  0.2267E+00  0.3640E+01  0.3517E+01
      2.023  0.1566E+00  0.1891E+00  0.3650E+01  0.3530E+01
      2.090  0.1171E+00  0.1455E+00  0.3658E+01  0.3539E+01
      2.157  0.8179E-01  0.1032E+00  0.3664E+01  0.3546E+01
      2.224  0.5013E-01  0.7828E-01  0.3667E+01  0.3551E+01
      2.291  0.2469E-01  0.8467E-01  0.3669E+01  0.3557E+01
      2.358  0.1336E-01  0.1194E+00  0.3670E+01  0.3565E+01
      2.425  0.1997E-01  0.1624E+00  0.3671E+01  0.3576E+01
      2.492  0.3657E-01  0.1929E+00  0.3673E+01  0.3589E+01
      2.559  0.5050E-01  0.2033E+00  0.3677E+01  0.3603E+01
      2.626  0.5985E-01  0.1983E+00  0.3681E+01  0.3616E+01
      2.693  0.7607E-01  0.1856E+00  0.3686E+01  0.3628E+01
      2.760  0.1061E+00  0.1679E+00  0.3693E+01  0.3640E+01
      2.827  0.1363E+00  0.1441E+00  0.3702E+01  0.3649E+01
      2.894  0.1441E+00  0.1148E+00  0.3712E+01  0.3657E+01
      2.961  0.1247E+00  0.8677E-01  0.3720E+01  0.3663E+01
      3.028  0.9757E-01  0.6945E-01  0.3727E+01  0.3667E+01
      3.095  0.8625E-01  0.6861E-01  0.3732E+01  0.3672E+01
      3.162  0.9791E-01  0.8259E-01  0.3739E+01  0.3678E+01
      3.229  0.1218E+00  0.1030E+00  0.3747E+01  0.3684E+01
      3.296  0.1398E+00  0.1192E+00  0.3757E+01  0.3692E+01
      3.364  0.1385E+00  0.1241E+00  0.3766E+01  0.3701E+01
      3.431  0.1163E+00  0.1158E+00  0.3774E+01  0.3709E+01
      3.498  0.7984E-01  0.9492E-01  0.3779E+01  0.3715E+01
      3.565  0.4178E-01  0.6699E-01  0.3782E+01  0.3719E+01
      3.632  0.1953E-01  0.4762E-01  0.3783E+01  0.3723E+01
      3.699  0.2815E-01  0.5600E-01  0.3785E+01  0.3726E+01
      3.766  0.6714E-01  0.9678E-01  0.3789E+01  0.3733E+01
      3.833  0.1176E+00  0.1509E+00  0.3797E+01  0.3743E+01
      3.900  0.1576E+00  0.1866E+00  0.3808E+01  0.3755E+01
      3.967  0.1791E+00  0.1807E+00  0.3820E+01  0.3768E+01
      4.034  0.1841E+00  0.1342E+00  0.3832E+01  0.3777E+01
      4.101  0.1722E+00  0.7170E-01  0.3844E+01  0.3781E+01
      4.168  0.1410E+00  0.2600E-01  0.3853E+01  0.3783E+01
      4.235  0.9631E-01  0.2044E-01  0.3860E+01  0.3784E+01
      4.302  0.5239E-01  0.5898E-01  0.3863E+01  0.3788E+01
      4.369  0.2032E-01  0.1254E+00  0.3865E+01  0.3797E+01
      4.436  0.2430E-02  0.1904E+00  0.3865E+01  0.3810E+01
      4.503 -0.4563E-02  0.2250E+00  0.3864E+01  0.3825E+01
      4.570 -0.4667E-02  0.2159E+00  0.3864E+01  0.3839E+01
      4.637 -0.3603E-03  0.1715E+00  0.3864E+01  0.3851E+01
      4.704  0.7480E-02  0.1138E+00  0.3865E+01  0.3858E+01
      4.772  0.1984E-01  0.6252E-01  0.3866E+01  0.3862E+01
      4.839  0.4046E-01  0.2684E-01  0.3869E+01  0.3864E+01
      4.906  0.7273E-01  0.7241E-02  0.3874E+01  0.3865E+01
      4.973  0.1123E+00  0.2058E-02  0.3881E+01  0.3865E+01
      5.040  0.1460E+00  0.1033E-01  0.3891E+01  0.3866E+01
      5.107  0.1625E+00  0.2981E-01  0.3902E+01  0.3868E+01
      5.174  0.1590E+00  0.5454E-01  0.3912E+01  0.3871E+01
      5.241  0.1368E+00  0.7778E-01  0.3922E+01  0.3876E+01
      5.308  0.9879E-01  0.9774E-01  0.3928E+01  0.3883E+01
      5.375  0.5642E-01  0.1167E+00  0.3932E+01  0.3891E+01
      5.442  0.2910E-01  0.1346E+00  0.3934E+01  0.3900E+01
      5.509  0.3222E-01  0.1470E+00  0.3936E+01  0.3910E+01
      5.576  0.6521E-01  0.1488E+00  0.3940E+01  0.3920E+01
      5.643  0.1110E+00  0.1380E+00  0.3948E+01  0.3929E+01
      5.710  0.1463E+00  0.1179E+00  0.3958E+01  0.3937E+01
      5.777  0.1542E+00  0.9871E-01  0.3968E+01  0.3943E+01
      5.844  0.1330E+00  0.9001E-01  0.3977E+01  0.3950E+01
      5.911  0.9488E-01  0.9101E-01  0.3983E+01  0.3956E+01
      5.978  0.5661E-01  0.9117E-01  0.3987E+01  0.3962E+01
      6.045  0.2876E-01  0.8195E-01  0.3989E+01  0.3967E+01
      6.112  0.1326E-01  0.6590E-01  0.3990E+01  0.3972E+01
      6.180  0.1111E-01  0.5346E-01  0.3991E+01  0.3975E+01
      6.247  0.2843E-01  0.5214E-01  0.3993E+01  0.3979E+01
      6.314  0.6925E-01  0.6291E-01  0.3997E+01  0.3983E+01
      6.381  0.1240E+00  0.8609E-01  0.4006E+01  0.3989E+01
      6.448  0.1735E+00  0.1193E+00  0.4017E+01  0.3997E+01
      6.515  0.2053E+00  0.1467E+00  0.4031E+01  0.4007E+01
      6.582  0.2191E+00  0.1472E+00  0.4046E+01  0.4016E+01
      6.649  0.2156E+00  0.1202E+00  0.4060E+01  0.4024E+01
      6.716  0.1908E+00  0.8945E-01  0.4073E+01  0.4030E+01
      6.783  0.1458E+00  0.7672E-01  0.4083E+01  0.4036E+01
      6.850  0.9928E-01  0.8481E-01  0.4089E+01  0.4041E+01
      6.917  0.8390E-01  0.1073E+00  0.4095E+01  0.4049E+01
      6.984  0.1196E+00  0.1372E+00  0.4103E+01  0.4058E+01
      7.051  0.1877E+00  0.1638E+00  0.4116E+01  0.4069E+01
      7.118  0.2410E+00  0.1754E+00  0.4132E+01  0.4080E+01
      7.185  0.2460E+00  0.1678E+00  0.4148E+01  0.4092E+01
      7.252  0.2071E+00  0.1478E+00  0.4162E+01  0.4102E+01
      7.319  0.1493E+00  0.1302E+00  0.4172E+01  0.4110E+01
      7.386  0.9188E-01  0.1321E+00  0.4178E+01  0.4119E+01
      7.453  0.4479E-01  0.1598E+00  0.4181E+01  0.4130E+01
      7.521  0.1419E-01  0.1970E+00  0.4182E+01  0.4143E+01
      7.588  0.5385E-03  0.2123E+00  0.4182E+01  0.4157E+01
      7.655 -0.2354E-02  0.1843E+00  0.4182E+01  0.4170E+01
      7.722 -0.1694E-02  0.1216E+00  0.4182E+01  0.4178E+01
      7.789 -0.9617E-03  0.5521E-01  0.4182E+01  0.4182E+01
      7.856 -0.5974E-03  0.1220E-01  0.4182E+01  0.4182E+01
      7.923 -0.3498E-03 -0.3247E-02  0.4182E+01  0.4182E+01
      7.990 -0.1624E-03 -0.3539E-02  0.4182E+01  0.4182E+01
      8.057 -0.5703E-04 -0.9742E-03  0.4182E+01  0.4182E+01
      8.124 -0.1516E-04 -0.2486E-04  0.4182E+01  0.4182E+01
      8.191 -0.3083E-05 -0.1606E-03  0.4182E+01  0.4182E+01
      8.258 -0.4845E-06 -0.3028E-03  0.4182E+01  0.4182E+01
      8.325 -0.5931E-07 -0.2311E-03  0.4182E+01  0.4182E+01
      8.392 -0.5687E-08 -0.1094E-03  0.4182E+01  0.4182E+01
      8.459 -0.4289E-09 -0.3639E-04  0.4182E+01  0.4182E+01
      8.526 -0.2552E-10 -0.8966E-05  0.4182E+01  0.4182E+01
      8.593 -0.1201E-11 -0.1680E-05  0.4182E+01  0.4182E+01
      8.660 -0.4479E-13 -0.2430E-06  0.4182E+01  0.4182E+01
      8.727 -0.1323E-14 -0.2739E-07  0.4182E+01  0.4182E+01
      8.794 -0.3345E-16 -0.2421E-08  0.4182E+01  0.4182E+01
      8.861  0.0000E+00 -0.1684E-09  0.4182E+01  0.4182E+01
      8.929  0.0000E+00 -0.9250E-11  0.4182E+01  0.4182E+01
      8.996  0.0000E+00 -0.4021E-12  0.4182E+01  0.4182E+01
      9.063  0.0000E+00 -0.1385E-13  0.4182E+01  0.4182E+01
      9.130  0.0000E+00 -0.3791E-15  0.4182E+01  0.4182E+01
      9.197  0.0000E+00 -0.7434E-17  0.4182E+01  0.4182E+01
      9.264  0.0000E+00  0.0000E+00  0.4182E+01  0.4182E+01
      9.331  0.0000E+00  0.0000E+00  0.4182E+01  0.4182E+01
      9.398  0.0000E+00  0.0000E+00  0.4182E+01  0.4182E+01
      9.465  0.0000E+00  0.0000E+00  0.4182E+01  0.4182E+01
      9.532  0.0000E+00  0.0000E+00  0.4182E+01  0.4182E+01
      9.599  0.0000E+00  0.0000E+00  0.4182E+01  0.4182E+01
      9.666  0.0000E+00  0.0000E+00  0.4182E+01  0.4182E+01
      9.733  0.0000E+00  0.0000E+00  0.4182E+01  0.4182E+01
      9.800  0.0000E+00  0.0000E+00  0.4182E+01  0.4182E+01
      9.867  0.0000E+00  0.0000E+00  0.4182E+01  0.4182E+01
      9.934  0.0000E+00  0.0000E+00  0.4182E+01  0.4182E+01
      9.93422154    -10.18011489  301      0.29851841      1.00000000
    -10.180  0.0000E+00  0.0000E+00  0.0000E+00  0.0000E+00  0.0000E+00  0.0000E+00
    -10.113  0.0000E+00  0.0000E+00  0.0000E+00  0.0000E+00  0.0000E+00  0.0000E+00
    -10.046  0.0000E+00  0.0000E+00  0.0000E+00  0.0000E+00  0.0000E+00  0.0000E+00
     -9.979  0.0000E+00  0.0000E+00  0.0000E+00  0.0000E+00  0.0000E+00  0.0000E+00
     -9.912  0.0000E+00  0.0000E+00  0.0000E+00  0.0000E+00  0.0000E+00  0.0000E+00
     -9.845 -0.5316E-31  0.0000E+00 -0.3547E-33  0.0000E+00 -0.9316E-34  0.0000E+00
     -9.778 -0.1204E-28 -0.4892E-30 -0.8037E-31 -0.2685E-32 -0.2111E-31 -0.8385E-33
     -9.711 -0.2183E-26 -0.1015E-27 -0.1457E-28 -0.5569E-30 -0.3825E-29 -0.1739E-30
     -9.644 -0.3153E-24 -0.1684E-25 -0.2104E-26 -0.9241E-28 -0.5525E-27 -0.2886E-28
     -9.577 -0.3628E-22 -0.2226E-23 -0.2421E-24 -0.1222E-25 -0.6358E-25 -0.3817E-26
     -9.510 -0.3325E-20 -0.2346E-21 -0.2219E-22 -0.1287E-23 -0.5827E-23 -0.4021E-24
     -9.443 -0.2426E-18 -0.1968E-19 -0.1619E-20 -0.1080E-21 -0.4252E-21 -0.3373E-22
     -9.376 -0.1409E-16 -0.1314E-17 -0.9404E-19 -0.7214E-20 -0.2470E-19 -0.2253E-20
     -9.308 -0.6309E-15 -0.6817E-16 -0.4210E-17 -0.3741E-18 -0.1106E-17 -0.1168E-18
     -9.241 -0.2307E-13 -0.2856E-14 -0.1540E-15 -0.1568E-16 -0.4044E-16 -0.4896E-17
     -9.174 -0.6697E-12 -0.9551E-13 -0.4469E-14 -0.5243E-15 -0.1174E-14 -0.1637E-15
     -9.107 -0.1541E-10 -0.2533E-11 -0.1028E-12 -0.1391E-13 -0.2700E-13 -0.4343E-14
     -9.040 -0.2805E-09 -0.5323E-10 -0.1872E-11 -0.2922E-12 -0.4915E-12 -0.9125E-13
     -8.973 -0.4032E-08 -0.8845E-09 -0.2692E-10 -0.4857E-11 -0.7066E-11 -0.1516E-11
     -8.906 -0.4563E-07 -0.1159E-07 -0.3050E-09 -0.6369E-10 -0.7997E-10 -0.1987E-10
     -8.839 -0.4050E-06 -0.1195E-06 -0.2712E-08 -0.6572E-09 -0.7098E-09 -0.2048E-09
     -8.772 -0.2803E-05 -0.9634E-06 -0.1885E-07 -0.5317E-08 -0.4911E-08 -0.1651E-08
     -8.705 -0.1499E-04 -0.6040E-05 -0.1020E-06 -0.3358E-07 -0.2627E-07 -0.1035E-07
     -8.638 -0.6113E-04 -0.2914E-04 -0.4272E-06 -0.1649E-06 -0.1071E-06 -0.4991E-07
     -8.571 -0.1856E-03 -0.1064E-03 -0.1389E-05 -0.6293E-06 -0.3248E-06 -0.1820E-06
     -8.504 -0.4002E-03 -0.2853E-03 -0.3586E-05 -0.1888E-05 -0.6982E-06 -0.4863E-06
     -8.437 -0.5388E-03 -0.5265E-03 -0.7862E-05 -0.4657E-05 -0.9299E-06 -0.8873E-06
     -8.370 -0.1900E-03 -0.5400E-03 -0.1614E-04 -0.1034E-04 -0.2830E-06 -0.8625E-06
     -8.303  0.1011E-02  0.1554E-03 -0.3023E-04 -0.2185E-04  0.1895E-05  0.4610E-06
     -8.236  0.3161E-02  0.1825E-02 -0.3555E-04 -0.3805E-04  0.5729E-05  0.3540E-05
     -8.169  0.7042E-02  0.4699E-02  0.3311E-04 -0.2782E-04  0.1238E-04  0.8514E-05
     -8.102  0.1508E-01  0.1043E-01  0.2850E-03  0.9902E-04  0.2578E-04  0.1752E-04
     -8.035  0.2846E-01  0.2188E-01  0.7455E-03  0.4411E-03  0.4783E-04  0.3473E-04
     -7.968  0.4177E-01  0.3797E-01  0.1204E-02  0.9408E-03  0.6932E-04  0.5866E-04
     -7.900  0.4479E-01  0.4953E-01  0.1309E-02  0.1301E-02  0.7255E-04  0.7542E-04
     -7.833  0.3326E-01  0.4630E-01  0.9262E-03  0.1213E-02  0.4994E-04  0.6882E-04
     -7.766  0.1522E-01  0.2931E-01  0.3466E-03  0.7055E-03  0.1699E-04  0.3985E-04
     -7.699  0.3968E-02  0.1198E-01  0.1011E-03  0.1925E-03  0.3607E-05  0.1036E-04
     -7.632  0.7068E-02  0.7548E-02  0.5787E-03  0.1654E-03  0.3270E-04  0.6752E-05
     -7.565  0.2175E-01  0.1781E-01  0.1712E-02  0.8513E-03  0.1021E-03  0.4146E-04
     -7.498  0.3817E-01  0.3327E-01  0.2986E-02  0.2055E-02  0.1868E-03  0.1056E-03
     -7.431  0.4803E-01  0.4324E-01  0.3926E-02  0.3330E-02  0.2687E-03  0.1799E-03
     -7.364  0.5095E-01  0.4603E-01  0.4511E-02  0.4394E-02  0.3506E-03  0.2549E-03
     -7.297  0.5014E-01  0.4727E-01  0.4814E-02  0.5209E-02  0.4175E-03  0.3273E-03
     -7.230  0.4469E-01  0.4840E-01  0.4504E-02  0.5530E-02  0.4137E-03  0.3688E-03
     -7.163  0.3210E-01  0.4350E-01  0.3277E-02  0.4857E-02  0.3030E-03  0.3328E-03
     -7.096  0.1559E-01  0.2949E-01  0.1542E-02  0.3159E-02  0.1302E-03  0.2140E-03
     -7.029  0.2187E-02  0.1235E-01  0.8936E-04  0.1209E-02 -0.2344E-04  0.6882E-04
     -6.962 -0.4532E-02  0.1086E-03 -0.6445E-03 -0.1679E-03 -0.1059E-03 -0.4177E-04
     -6.895 -0.4406E-02 -0.4845E-02 -0.3803E-03 -0.7087E-03 -0.3572E-04 -0.8714E-04
     -6.828  0.5327E-02 -0.3093E-02  0.1774E-02 -0.1525E-03  0.4091E-03  0.9019E-05
     -6.761  0.2945E-01  0.8141E-02  0.6796E-02  0.2544E-02  0.1449E-02  0.4439E-03
     -6.694  0.6377E-01  0.3284E-01  0.1353E-01  0.8285E-02  0.2842E-02  0.1371E-02
     -6.627  0.8900E-01  0.6550E-01  0.1792E-01  0.1543E-01  0.3734E-02  0.2527E-02
     -6.560  0.8588E-01  0.8749E-01  0.1644E-01  0.1951E-01  0.3390E-02  0.3193E-02
     -6.492  0.5755E-01  0.8237E-01  0.1042E-01  0.1729E-01  0.2135E-02  0.2831E-02
     -6.425  0.2886E-01  0.5511E-01  0.5206E-02  0.1087E-01  0.1227E-02  0.1756E-02
     -6.358  0.2112E-01  0.2924E-01  0.4875E-02  0.5981E-02  0.1647E-02  0.9506E-03
     -6.291  0.3305E-01  0.2336E-01  0.8635E-02  0.6247E-02  0.3145E-02  0.1173E-02
     -6.224  0.4697E-01  0.3497E-01  0.1242E-01  0.1007E-01  0.4541E-02  0.2319E-02
     -6.157  0.4873E-01  0.4741E-01  0.1319E-01  0.1314E-01  0.4914E-02  0.3600E-02
     -6.090  0.3862E-01  0.4833E-01  0.1113E-01  0.1306E-01  0.4313E-02  0.4272E-02
     -6.023  0.2487E-01  0.3877E-01  0.8000E-02  0.1075E-01  0.3249E-02  0.4132E-02
     -5.956  0.1308E-01  0.2623E-01  0.4900E-02  0.8018E-02  0.2008E-02  0.3370E-02
     -5.889  0.5574E-02  0.1500E-01  0.2571E-02  0.5350E-02  0.8838E-03  0.2222E-02
     -5.822  0.6155E-02  0.5759E-02  0.2574E-02  0.2856E-02  0.7276E-03  0.9989E-03
     -5.755  0.1949E-01  0.6668E-03  0.6620E-02  0.1709E-02  0.2722E-02  0.2604E-03
     -5.688  0.4531E-01  0.4565E-02  0.1478E-01  0.3523E-02  0.7463E-02  0.7012E-03
     -5.621  0.7510E-01  0.2151E-01  0.2456E-01  0.9024E-02  0.1392E-01  0.2958E-02
     -5.554  0.9495E-01  0.5070E-01  0.3149E-01  0.1779E-01  0.1917E-01  0.7375E-02
     -5.487  0.9380E-01  0.8385E-01  0.3161E-01  0.2795E-01  0.2007E-01  0.1322E-01
     -5.420  0.7289E-01  0.1060E+00  0.2499E-01  0.3526E-01  0.1658E-01  0.1792E-01
     -5.353  0.4720E-01  0.1036E+00  0.1679E-01  0.3482E-01  0.1283E-01  0.1835E-01
     -5.286  0.3324E-01  0.7623E-01  0.1294E-01  0.2596E-01  0.1331E-01  0.1392E-01
     -5.219  0.3358E-01  0.4075E-01  0.1437E-01  0.1441E-01  0.1751E-01  0.8077E-02
     -5.152  0.3610E-01  0.1822E-01  0.1645E-01  0.7702E-02  0.1990E-01  0.5599E-02
     -5.084  0.2909E-01  0.1723E-01  0.1435E-01  0.8812E-02  0.1582E-01  0.8544E-02
     -5.017  0.1370E-01  0.2944E-01  0.8165E-02  0.1475E-01  0.6811E-02  0.1462E-01
     -4.950  0.1946E-02  0.3912E-01  0.3245E-02  0.1980E-01  0.6881E-03  0.1900E-01
     -4.883  0.7420E-02  0.3610E-01  0.6589E-02  0.1965E-01  0.7513E-02  0.1795E-01
     -4.816  0.3631E-01  0.2186E-01  0.2142E-01  0.1381E-01  0.3309E-01  0.1161E-01
     -4.749  0.7985E-01  0.5905E-02  0.4258E-01  0.5957E-02  0.7251E-01  0.4061E-02
     -4.682  0.1154E+00 -0.1153E-02  0.5804E-01  0.2345E-02  0.1114E+00  0.1289E-02
     -4.615  0.1236E+00  0.8909E-02  0.5835E-01  0.8816E-02  0.1380E+00  0.8607E-02
     -4.548  0.1060E+00  0.3901E-01  0.4502E-01  0.2667E-01  0.1526E+00  0.2752E-01
     -4.481  0.8064E-01  0.8115E-01  0.2798E-01  0.4954E-01  0.1626E+00  0.5301E-01
     -4.414  0.6275E-01  0.1161E+00  0.1620E-01  0.6583E-01  0.1714E+00  0.7512E-01
     -4.347  0.5627E-01  0.1262E+00  0.1273E-01  0.6713E-01  0.1803E+00  0.8583E-01
     -4.280  0.6025E-01  0.1095E+00  0.1672E-01  0.5436E-01  0.1992E+00  0.8433E-01
     -4.213  0.7233E-01  0.7917E-01  0.2570E-01  0.3558E-01  0.2398E+00  0.7540E-01
     -4.146  0.8519E-01  0.5042E-01  0.3554E-01  0.1912E-01  0.2942E+00  0.6476E-01
     -4.079  0.8918E-01  0.3131E-01  0.4165E-01  0.9325E-02  0.3360E+00  0.5663E-01
     -4.012  0.8189E-01  0.2272E-01  0.4282E-01  0.6893E-02  0.3544E+00  0.5522E-01
     -3.945  0.7008E-01  0.2383E-01  0.4263E-01  0.1125E-01  0.3729E+00  0.6991E-01
     -3.878  0.6101E-01  0.3621E-01  0.4548E-01  0.2133E-01  0.4207E+00  0.1175E+00
     -3.811  0.5558E-01  0.6115E-01  0.5152E-01  0.3420E-01  0.5000E+00  0.2097E+00
     -3.744  0.5044E-01  0.9204E-01  0.5622E-01  0.4511E-01  0.5892E+00  0.3288E+00
     -3.676  0.4334E-01  0.1137E+00  0.5512E-01  0.5066E-01  0.6694E+00  0.4252E+00
     -3.609  0.3514E-01  0.1142E+00  0.4841E-01  0.5120E-01  0.7339E+00  0.4534E+00
     -3.542  0.2824E-01  0.9670E-01  0.4061E-01  0.4920E-01  0.7825E+00  0.4147E+00
     -3.475  0.2403E-01  0.7437E-01  0.3631E-01  0.4700E-01  0.8136E+00  0.3615E+00
     -3.408  0.2195E-01  0.5730E-01  0.3702E-01  0.4637E-01  0.8233E+00  0.3510E+00
     -3.341  0.2055E-01  0.4609E-01  0.4164E-01  0.4739E-01  0.8134E+00  0.3866E+00
     -3.274  0.1877E-01  0.3663E-01  0.4846E-01  0.4763E-01  0.8004E+00  0.4144E+00
     -3.207  0.1621E-01  0.2743E-01  0.5577E-01  0.4527E-01  0.8064E+00  0.3958E+00
     -3.140  0.1297E-01  0.2185E-01  0.6158E-01  0.4288E-01  0.8379E+00  0.3734E+00
     -3.073  0.9562E-02  0.2341E-01  0.6438E-01  0.4464E-01  0.8813E+00  0.4366E+00
     -3.006  0.6879E-02  0.3015E-01  0.6442E-01  0.4997E-01  0.9164E+00  0.6197E+00
     -2.939  0.5608E-02  0.3530E-01  0.6336E-01  0.5338E-01  0.9291E+00  0.8531E+00
     -2.872  0.5769E-02  0.3370E-01  0.6261E-01  0.5122E-01  0.9162E+00  0.1020E+01
     -2.805  0.6838E-02  0.2648E-01  0.6253E-01  0.4622E-01  0.8836E+00  0.1052E+01
     -2.738  0.8145E-02  0.1894E-01  0.6292E-01  0.4428E-01  0.8400E+00  0.9667E+00
     -2.671  0.9152E-02  0.1485E-01  0.6374E-01  0.4836E-01  0.7945E+00  0.8325E+00
     -2.604  0.9623E-02  0.1378E-01  0.6555E-01  0.5676E-01  0.7603E+00  0.7138E+00
     -2.537  0.9633E-02  0.1315E-01  0.6913E-01  0.6547E-01  0.7518E+00  0.6442E+00
     -2.470  0.9421E-02  0.1129E-01  0.7423E-01  0.7065E-01  0.7716E+00  0.6192E+00
     -2.403  0.9281E-02  0.8420E-02  0.7918E-01  0.7007E-01  0.8065E+00  0.6124E+00
     -2.336  0.9492E-02  0.5601E-02  0.8190E-01  0.6436E-01  0.8443E+00  0.6063E+00
     -2.268  0.1009E-01  0.3713E-02  0.8125E-01  0.5682E-01  0.8921E+00  0.6056E+00
     -2.201  0.1070E-01  0.3007E-02  0.7756E-01  0.5155E-01  0.9728E+00  0.6214E+00
     -2.134  0.1093E-01  0.3184E-02  0.7256E-01  0.5120E-01  0.1104E+01  0.6546E+00
     -2.067  0.1086E-01  0.3713E-02  0.6836E-01  0.5582E-01  0.1284E+01  0.6934E+00
     -2.000  0.1096E-01  0.4165E-02  0.6568E-01  0.6337E-01  0.1486E+01  0.7214E+00
     -1.933  0.1141E-01  0.4424E-02  0.6334E-01  0.7119E-01  0.1655E+01  0.7301E+00
     -1.866  0.1160E-01  0.4677E-02  0.5962E-01  0.7692E-01  0.1711E+01  0.7311E+00
     -1.799  0.1078E-01  0.5255E-02  0.5390E-01  0.7883E-01  0.1599E+01  0.7544E+00
     -1.732  0.8896E-02  0.6373E-02  0.4680E-01  0.7691E-01  0.1342E+01  0.8292E+00
     -1.665  0.6756E-02  0.7941E-02  0.3993E-01  0.7342E-01  0.1058E+01  0.9577E+00
     -1.598  0.5264E-02  0.9545E-02  0.3541E-01  0.7111E-01  0.8829E+00  0.1106E+01
     -1.531  0.4736E-02  0.1069E-01  0.3434E-01  0.7072E-01  0.8786E+00  0.1224E+01
     -1.464  0.4850E-02  0.1116E-01  0.3529E-01  0.7055E-01  0.1003E+01  0.1284E+01
     -1.397  0.5093E-02  0.1121E-01  0.3525E-01  0.6883E-01  0.1148E+01  0.1291E+01
     -1.330  0.5151E-02  0.1134E-01  0.3228E-01  0.6595E-01  0.1212E+01  0.1284E+01
     -1.263  0.4974E-02  0.1173E-01  0.2693E-01  0.6390E-01  0.1158E+01  0.1310E+01
     -1.196  0.4625E-02  0.1201E-01  0.2123E-01  0.6369E-01  0.1034E+01  0.1395E+01
     -1.129  0.4212E-02  0.1160E-01  0.1700E-01  0.6395E-01  0.9283E+00  0.1508E+01
     -1.062  0.3885E-02  0.1036E-01  0.1520E-01  0.6247E-01  0.9089E+00  0.1578E+01
     -0.995  0.3783E-02  0.8715E-02  0.1573E-01  0.5867E-01  0.9875E+00  0.1549E+01