       N       E                     dE             d eps       ncg     rms          rms(c)
DAV:   1     0.461736202086E+04    0.46174E+04   -0.26824E+05  8280   0.162E+03
DAV:   2     0.878952344737E+02   -0.45295E+04   -0.42646E+04  8280   0.358E+02
DAV:   3    -0.348883874860E+03   -0.43678E+03   -0.37486E+03  8523   0.151E+02
DAV:   4    -0.367251714007E+03   -0.18368E+02   -0.18020E+02  8820   0.339E+01
DAV:   5    -0.367599096271E+03   -0.34738E+00   -0.34722E+00  9828   0.364E+00    0.317E+01
RMM:   6    -0.389633669744E+03   -0.22035E+02   -0.24054E+01  8339   0.118E+01    0.809E+01
RMM:   7    -0.406936013822E+03   -0.17302E+02   -0.41224E+01  8335   0.169E+01    0.951E+01
RMM:   8    -0.389444042470E+03    0.17492E+02   -0.15970E+01  8340   0.981E+00    0.649E+01
RMM:   9    -0.368976113213E+03    0.20468E+02   -0.92735E+00  8346   0.779E+00    0.376E+01
RMM:  10    -0.363246857176E+03    0.57293E+01   -0.76756E+00  8365   0.693E+00    0.266E+01
RMM:  11    -0.364717977703E+03   -0.14711E+01   -0.49383E+00  8353   0.543E+00    0.354E+01
RMM:  12    -0.362207126957E+03    0.25109E+01   -0.44177E+00  8358   0.534E+00    0.177E+01
RMM:  13    -0.361367970524E+03    0.83916E+00   -0.20417E+00  8358   0.359E+00    0.147E+01
RMM:  14    -0.363014144404E+03   -0.16462E+01   -0.21739E+00  8358   0.361E+00    0.186E+01
RMM:  15    -0.362145755887E+03    0.86839E+00   -0.10676E+00  8356   0.269E+00    0.971E+00
RMM:  16    -0.363385387968E+03   -0.12396E+01   -0.72830E-01  8348   0.202E+00    0.127E+01
RMM:  17    -0.364966628151E+03   -0.15812E+01   -0.91687E-01  8323   0.210E+00    0.117E+01
RMM:  18    -0.365710589046E+03   -0.74396E+00   -0.62977E-01  8342   0.186E+00    0.985E+00
RMM:  19    -0.367036613328E+03   -0.13260E+01   -0.63475E-01  8326   0.164E+00    0.852E+00
RMM:  20    -0.367278673706E+03   -0.24206E+00   -0.24702E-01  8337   0.119E+00    0.495E+00
RMM:  21    -0.367932772975E+03   -0.65410E+00   -0.18778E-01  8334   0.942E-01    0.554E+00
RMM:  22    -0.368537822218E+03   -0.60505E+00   -0.23740E-01  8311   0.909E-01    0.387E+00
RMM:  23    -0.368800617113E+03   -0.26279E+00   -0.80770E-02  8338   0.622E-01    0.338E+00
RMM:  24    -0.369461453347E+03   -0.66084E+00   -0.16262E-01  8311   0.642E-01    0.341E+00
RMM:  25    -0.369815125815E+03   -0.35367E+00   -0.81629E-02  8320   0.532E-01    0.192E+00
RMM:  26    -0.370533544652E+03   -0.71842E+00   -0.18285E-01  8312   0.652E-01    0.341E+00
RMM:  27    -0.371045020676E+03   -0.51148E+00   -0.12467E-01  8312   0.553E-01    0.228E+00
RMM:  28    -0.371270455312E+03   -0.22543E+00   -0.40811E-02  8338   0.391E-01    0.269E+00
RMM:  29    -0.371597783444E+03   -0.32733E+00   -0.67619E-02  8311   0.407E-01    0.192E+00
RMM:  30    -0.371702549310E+03   -0.10477E+00   -0.28713E-02  8325   0.339E-01    0.137E+00
RMM:  31    -0.371790486942E+03   -0.87938E-01   -0.22793E-02  8314   0.274E-01    0.176E+00
RMM:  32    -0.371816004217E+03   -0.25517E-01   -0.89659E-03  8341   0.204E-01    0.178E+00
RMM:  33    -0.371838932880E+03   -0.22929E-01   -0.35573E-03  8334   0.131E-01    0.143E+00
RMM:  34    -0.371874863100E+03   -0.35930E-01   -0.94782E-03  8334   0.189E-01    0.157E+00
RMM:  35    -0.371869461760E+03    0.54013E-02   -0.10572E-02  8327   0.208E-01    0.110E+00
RMM:  36    -0.371860718765E+03    0.87430E-02   -0.59630E-03  8337   0.171E-01    0.815E-01
RMM:  37    -0.371878444909E+03   -0.17726E-01   -0.28998E-03  8332   0.117E-01    0.705E-01
RMM:  38    -0.371939695268E+03   -0.61250E-01   -0.31452E-03  8317   0.105E-01    0.757E-01
RMM:  39    -0.371959401544E+03   -0.19706E-01   -0.80320E-04  8314   0.653E-02    0.574E-01
RMM:  40    -0.372006864141E+03   -0.47463E-01   -0.10793E-03  8324   0.612E-02    0.345E-01
RMM:  41    -0.372034590008E+03   -0.27726E-01   -0.57411E-04  8294   0.508E-02    0.542E-01
RMM:  42    -0.372069110288E+03   -0.34520E-01   -0.48450E-04  8292   0.435E-02    0.571E-01
RMM:  43    -0.372089964606E+03   -0.20854E-01   -0.32000E-04  8279   0.368E-02    0.689E-01
RMM:  44    -0.372097171330E+03   -0.72067E-02   -0.12061E-04  8131   0.228E-02    0.551E-01
RMM:  45    -0.372105280643E+03   -0.81093E-02   -0.16276E-04  8169   0.223E-02    0.187E-01
RMM:  46    -0.372111546349E+03   -0.62657E-02   -0.12516E-04  8135   0.222E-02    0.122E-01
RMM:  47    -0.372123538253E+03   -0.11992E-01   -0.26096E-04  8138   0.246E-02    0.151E-01
RMM:  48    -0.372127434853E+03   -0.38966E-02   -0.84631E-05  7370   0.169E-02    0.201E-01
RMM:  49    -0.372131796500E+03   -0.43616E-02   -0.87707E-05  6766   0.136E-02    0.987E-02
RMM:  50    -0.372133347319E+03   -0.15508E-02   -0.28223E-05  5597   0.108E-02    0.911E-02
RMM:  51    -0.372136767952E+03   -0.34206E-02   -0.10384E-04  7191   0.136E-02    0.102E-01
RMM:  52    -0.372138873199E+03   -0.21052E-02   -0.56595E-05  6384   0.120E-02    0.207E-01
RMM:  53    -0.372140708598E+03   -0.18354E-02   -0.53740E-05  5988   0.973E-03    0.139E-01
RMM:  54    -0.372142027227E+03   -0.13186E-02   -0.35042E-05  5687   0.911E-03    0.732E-02
RMM:  55    -0.372143608809E+03   -0.15816E-02   -0.13989E-04  8061   0.152E-02    0.440E-01
RMM:  56    -0.372142937010E+03    0.67180E-03   -0.24153E-05  5486   0.113E-02    0.207E-01
RMM:  57    -0.372143055451E+03   -0.11844E-03   -0.28800E-05  5596   0.969E-03    0.996E-02
RMM:  58    -0.372143028759E+03    0.26692E-04   -0.10617E-05  4863   0.611E-03    0.159E-02
RMM:  59    -0.372143042903E+03   -0.14144E-04   -0.41529E-06  4654   0.543E-03    0.174E-02
RMM:  60    -0.372143100997E+03   -0.58094E-04   -0.32055E-06  4790   0.344E-03    0.362E-02
RMM:  61    -0.372143650548E+03   -0.54955E-03   -0.42168E-05  6908   0.866E-03    0.351E-01
RMM:  62    -0.372143939147E+03   -0.28860E-03   -0.10628E-05  4892   0.785E-03    0.435E-01
RMM:  63    -0.372143891275E+03    0.47872E-04   -0.24076E-06  4615   0.452E-03    0.423E-01
RMM:  64    -0.372143718664E+03    0.17261E-03   -0.82984E-07  4470   0.219E-03    0.377E-01
RMM:  65    -0.372143611299E+03    0.10736E-03   -0.70941E-07  3960   0.163E-03    0.343E-01
RMM:  66    -0.372143339204E+03    0.27210E-03   -0.66262E-06  4675   0.386E-03    0.228E-01
RMM:  67    -0.372143116534E+03    0.22267E-03   -0.21842E-05  5392   0.646E-03    0.187E-02
RMM:  68    -0.372143173823E+03   -0.57290E-04   -0.11203E-05  4819   0.640E-03    0.967E-02
RMM:  69    -0.372143202929E+03   -0.29106E-04   -0.36590E-06  4736   0.509E-03    0.105E-01
RMM:  70    -0.372143199393E+03    0.35360E-05   -0.81037E-07  4553   0.242E-03
   1 F= -.37214320E+03 E0= -.37214578E+03  d E =-.372143E+03  mag=    73.2225
       N       E                     dE             d eps       ncg     rms          rms(c)
DAV:   1    -0.372030554214E+03    0.11265E+00   -0.88737E+01  8442   0.142E+01    0.614E+00
RMM:   2    -0.373900388634E+03   -0.18698E+01   -0.37971E+00  8313   0.565E+00    0.206E+01
RMM:   3    -0.373658864941E+03    0.24152E+00   -0.19100E+00  8332   0.361E+00    0.177E+01
RMM:   4    -0.374064311807E+03   -0.40545E+00   -0.70264E-01  8337   0.202E+00    0.187E+01
RMM:   5    -0.372690038460E+03    0.13743E+01   -0.47972E-01  8342   0.174E+00    0.826E+00
RMM:   6    -0.372490473186E+03    0.19957E+00   -0.22145E-01  8323   0.123E+00    0.272E+00
RMM:   7    -0.372486142255E+03    0.43309E-02   -0.49587E-02  8323   0.552E-01    0.231E+00
RMM:   8    -0.372472856236E+03    0.13286E-01   -0.19810E-02  8338   0.372E-01    0.146E+00
RMM:   9    -0.372468296045E+03    0.45602E-02   -0.12424E-02  8341   0.288E-01    0.115E+00
RMM:  10    -0.372471079902E+03   -0.27839E-02   -0.13547E-02  8324   0.282E-01    0.161E+00
RMM:  11    -0.372461688435E+03    0.93915E-02   -0.98358E-03  8343   0.255E-01    0.574E-01
RMM:  12    -0.372462716516E+03   -0.10281E-02   -0.34344E-03  8328   0.145E-01    0.754E-01
RMM:  13    -0.372461980442E+03    0.73607E-03   -0.20608E-03  8327   0.117E-01    0.554E-01
RMM:  14    -0.372461309155E+03    0.67129E-03   -0.10135E-03  8296   0.825E-02    0.283E-01
RMM:  15    -0.372461707122E+03   -0.39797E-03   -0.44666E-04  8306   0.522E-02    0.287E-01
RMM:  16    -0.372462128590E+03   -0.42147E-03   -0.23828E-04  8251   0.406E-02    0.129E-01
RMM:  17    -0.372462517896E+03   -0.38931E-03   -0.98007E-05  8184   0.255E-02    0.852E-02
RMM:  18    -0.372463738498E+03   -0.12206E-02   -0.82307E-05  8015   0.217E-02    0.117E-01
RMM:  19    -0.372464580772E+03   -0.84227E-03   -0.53593E-05  7396   0.186E-02    0.580E-02
RMM:  20    -0.372465358748E+03   -0.77798E-03   -0.31194E-05  5838   0.133E-02    0.727E-02
RMM:  21    -0.372467156977E+03   -0.17982E-02   -0.52306E-05  6520   0.142E-02    0.594E-02
RMM:  22    -0.372467934197E+03   -0.77722E-03   -0.23487E-05  5279   0.110E-02    0.514E-02
RMM:  23    -0.372469669006E+03   -0.17348E-02   -0.52261E-05  6352   0.118E-02    0.551E-02
RMM:  24    -0.372470601956E+03   -0.93295E-03   -0.26366E-05  5477   0.105E-02    0.304E-02
RMM:  25    -0.372471770889E+03   -0.11689E-02   -0.37710E-05  6059   0.100E-02    0.477E-02
RMM:  26    -0.372473022863E+03   -0.12520E-02   -0.49721E-05  6278   0.105E-02    0.222E-02
RMM:  27    -0.372473391031E+03   -0.36817E-03   -0.12837E-05  5018   0.657E-03    0.273E-02
RMM:  28    -0.372473862296E+03   -0.47126E-03   -0.20273E-05  5449   0.641E-03    0.196E-02
RMM:  29    -0.372473959761E+03   -0.97465E-04   -0.46618E-06  4794   0.445E-03    0.989E-03
RMM:  30    -0.372474061204E+03   -0.10144E-03   -0.43970E-06  4834   0.315E-03    0.124E-02
RMM:  31    -0.372474092103E+03   -0.30899E-04   -0.16057E-06  4558   0.272E-03    0.463E-03
RMM:  32    -0.372474106539E+03   -0.14436E-04   -0.56236E-07  3498   0.141E-03    0.526E-03
RMM:  33    -0.372474116746E+03   -0.10207E-04   -0.30586E-07  3202   0.119E-03    0.260E-03
RMM:  34    -0.372474120633E+03   -0.38870E-05   -0.38988E-08  1596   0.832E-04
   2 F= -.37247412E+03 E0= -.37247482E+03  d E =-.330921E+00  mag=    73.4543
       N       E                     dE             d eps       ncg     rms          rms(c)
DAV:   1    -0.372086778770E+03    0.38734E+00   -0.95945E+01  8280   0.147E+01    0.639E+00
RMM:   2    -0.373942542830E+03   -0.18558E+01   -0.39432E+00  8306   0.572E+00    0.204E+01
RMM:   3    -0.373418761797E+03    0.52378E+00   -0.20124E+00  8323   0.370E+00    0.152E+01
RMM:   4    -0.374802945065E+03   -0.13842E+01   -0.76118E-01  8337   0.211E+00    0.223E+01
RMM:   5    -0.372776388841E+03    0.20266E+01   -0.46078E-01  8342   0.169E+00    0.788E+00
RMM:   6    -0.372596397267E+03    0.17999E+00   -0.21191E-01  8324   0.120E+00    0.273E+00
RMM:   7    -0.372594677184E+03    0.17201E-02   -0.50229E-02  8324   0.559E-01    0.248E+00
RMM:   8    -0.372577201680E+03    0.17476E-01   -0.21855E-02  8334   0.391E-01    0.140E+00
RMM:   9    -0.372572839378E+03    0.43623E-02   -0.11917E-02  8341   0.281E-01    0.109E+00
RMM:  10    -0.372575874892E+03   -0.30355E-02   -0.13041E-02  8324   0.277E-01    0.162E+00
RMM:  11    -0.372566783490E+03    0.90914E-02   -0.93907E-03  8341   0.248E-01    0.571E-01
RMM:  12    -0.372568102532E+03   -0.13190E-02   -0.33876E-03  8333   0.143E-01    0.770E-01
RMM:  13    -0.372567331004E+03    0.77153E-03   -0.19879E-03  8336   0.116E-01    0.523E-01
RMM:  14    -0.372567015342E+03    0.31566E-03   -0.96488E-04  8287   0.800E-02    0.311E-01
RMM:  15    -0.372567572941E+03   -0.55760E-03   -0.48665E-04  8319   0.543E-02    0.306E-01
RMM:  16    -0.372567991587E+03   -0.41865E-03   -0.26805E-04  8270   0.432E-02    0.113E-01
RMM:  17    -0.372568546419E+03   -0.55483E-03   -0.10400E-04  8215   0.259E-02    0.101E-01
RMM:  18    -0.372570146508E+03   -0.16001E-02   -0.88210E-05  8064   0.218E-02    0.107E-01
RMM:  19    -0.372570976476E+03   -0.82997E-03   -0.49759E-05  7144   0.179E-02    0.599E-02
RMM:  20    -0.372572102741E+03   -0.11263E-02   -0.36896E-05  6113   0.139E-02    0.836E-02
RMM:  21    -0.372573618551E+03   -0.15158E-02   -0.42191E-05  6267   0.142E-02    0.558E-02
RMM:  22    -0.372574598028E+03   -0.97948E-03   -0.26986E-05  5459   0.112E-02    0.609E-02
RMM:  23    -0.372576780123E+03   -0.21821E-02   -0.70363E-05  6719   0.128E-02    0.500E-02
RMM:  24    -0.372577583138E+03   -0.80302E-03   -0.21677E-05  5273   0.957E-03    0.324E-02
RMM:  25    -0.372579118826E+03   -0.15357E-02   -0.52848E-05  6326   0.109E-02    0.489E-02
RMM:  26    -0.372580232729E+03   -0.11139E-02   -0.42743E-05  6020   0.103E-02    0.190E-02
RMM:  27    -0.372580738237E+03   -0.50551E-03   -0.18183E-05  5206   0.704E-03    0.296E-02
RMM:  28    -0.372581154273E+03   -0.41604E-03   -0.18243E-05  5314   0.687E-03    0.131E-02
RMM:  29    -0.372581262086E+03   -0.10781E-03   -0.49234E-06  4795   0.411E-03    0.155E-02
RMM:  30    -0.372581360394E+03   -0.98308E-04   -0.44483E-06  4826   0.350E-03    0.945E-03
RMM:  31    -0.372581379736E+03   -0.19342E-04   -0.10575E-06  4386   0.217E-03    0.478E-03
RMM:  32    -0.372581400015E+03   -0.20279E-04   -0.73159E-07  3822   0.152E-03    0.567E-03
RMM:  33    -0.372581408910E+03   -0.88958E-05   -0.31145E-07  3370   0.127E-03
   3 F= -.37258141E+03 E0= -.37258004E+03  d E =-.438210E+00  mag=    73.6811
       N       E                     dE             d eps       ncg     rms          rms(c)
DAV:   1    -0.372529047324E+03    0.52353E-01   -0.45302E+01  8316   0.102E+01    0.353E+00
RMM:   2    -0.373143630947E+03   -0.61458E+00   -0.88955E-01  8336   0.273E+00    0.117E+01
RMM:   3    -0.373539736260E+03   -0.39611E+00   -0.49721E-01  8340   0.174E+00    0.152E+01
RMM:   4    -0.373060677973E+03    0.47906E+00   -0.33242E-01  8333   0.141E+00    0.954E+00
RMM:   5    -0.372746791891E+03    0.31389E+00   -0.19857E-01  8343   0.116E+00    0.378E+00
RMM:   6    -0.372700974442E+03    0.45817E-01   -0.52943E-02  8326   0.606E-01    0.146E+00
RMM:   7    -0.372699373754E+03    0.16007E-02   -0.12819E-02  8329   0.283E-01    0.126E+00
RMM:   8    -0.372694366358E+03    0.50074E-02   -0.62379E-03  8339   0.207E-01    0.797E-01
RMM:   9    -0.372693250772E+03    0.11156E-02   -0.46599E-03  8329   0.175E-01    0.707E-01
RMM:  10    -0.372695032102E+03   -0.17813E-02   -0.51653E-03  8334   0.174E-01    0.112E+00
RMM:  11    -0.372691053063E+03    0.39790E-02   -0.37034E-03  8334   0.156E-01    0.370E-01
RMM:  12    -0.372691632867E+03   -0.57980E-03   -0.14336E-03  8337   0.925E-02    0.444E-01
RMM:  13    -0.372691502058E+03    0.13081E-03   -0.64320E-04  8297   0.665E-02    0.253E-01
RMM:  14    -0.372691487848E+03    0.14210E-04   -0.21178E-04  8278   0.374E-02    0.114E-01
RMM:  15    -0.372691824956E+03   -0.33711E-03   -0.10548E-04  8158   0.254E-02    0.140E-01
RMM:  16    -0.372692142203E+03   -0.31725E-03   -0.60514E-05  7492   0.206E-02    0.615E-02
RMM:  17    -0.372692374882E+03   -0.23268E-03   -0.26862E-05  5441   0.138E-02    0.517E-02
RMM:  18    -0.372693016162E+03   -0.64128E-03   -0.24267E-05  5137   0.122E-02    0.588E-02
RMM:  19    -0.372693364710E+03   -0.34855E-03   -0.16017E-05  4745   0.111E-02    0.259E-02
RMM:  20    -0.372693840440E+03   -0.47573E-03   -0.11672E-05  4773   0.757E-03    0.413E-02
RMM:  21    -0.372694532681E+03   -0.69224E-03   -0.14107E-05  4898   0.804E-03    0.261E-02
RMM:  22    -0.372694797320E+03   -0.26464E-03   -0.49759E-06  4650   0.512E-03    0.237E-02
RMM:  23    -0.372695542553E+03   -0.74523E-03   -0.11357E-05  4892   0.513E-03    0.226E-02
RMM:  24    -0.372695940885E+03   -0.39833E-03   -0.59333E-06  4736   0.497E-03    0.159E-02
RMM:  25    -0.372696731332E+03   -0.79045E-03   -0.16360E-05  5099   0.538E-03    0.230E-02
RMM:  26    -0.372697226465E+03   -0.49513E-03   -0.11791E-05  4923   0.534E-03    0.102E-02
RMM:  27    -0.372697482305E+03   -0.25584E-03   -0.65966E-06  4803   0.384E-03    0.150E-02
RMM:  28    -0.372697681305E+03   -0.19900E-03   -0.84163E-06  4880   0.378E-03    0.959E-03
RMM:  29    -0.372697700873E+03   -0.19568E-04   -0.14405E-06  4407   0.217E-03    0.852E-03
RMM:  30    -0.372697708459E+03   -0.75861E-05   -0.13419E-06  3952   0.162E-03
   4 F= -.37269771E+03 E0= -.37269680E+03  d E =-.116300E+00  mag=    73.7525
       N       E                     dE             d eps       ncg     rms          rms(c)
DAV:   1    -0.372283996580E+03    0.41370E+00   -0.12278E+02  8280   0.168E+01    0.590E+00
RMM:   2    -0.373859615843E+03   -0.15756E+01   -0.27184E+00  8340   0.477E+00    0.189E+01
RMM:   3    -0.374863716068E+03   -0.10041E+01   -0.15095E+00  8341   0.305E+00    0.228E+01
RMM:   4    -0.373941320428E+03    0.92240E+00   -0.84631E-01  8334   0.223E+00    0.165E+01
RMM:   5    -0.372896186870E+03    0.10451E+01   -0.54156E-01  8342   0.189E+00    0.623E+00
RMM:   6    -0.372779836838E+03    0.11635E+00   -0.15964E-01  8323   0.104E+00    0.290E+00
RMM:   7    -0.372775862210E+03    0.39746E-02   -0.42934E-02  8329   0.520E-01    0.249E+00
RMM:   8    -0.372755012061E+03    0.20850E-01   -0.19350E-02  8339   0.371E-01    0.115E+00
RMM:   9    -0.372755847718E+03   -0.83566E-03   -0.12599E-02  8324   0.283E-01    0.137E+00
RMM:  10    -0.372757062210E+03   -0.12145E-02   -0.13773E-02  8340   0.284E-01    0.167E+00
RMM:  11    -0.372748462223E+03    0.86000E-02   -0.97303E-03  8340   0.251E-01    0.616E-01
RMM:  12    -0.372751758227E+03   -0.32960E-02   -0.52660E-03  8337   0.176E-01    0.979E-01
RMM:  13    -0.372749529023E+03    0.22292E-02   -0.28057E-03  8340   0.138E-01    0.456E-01
RMM:  14    -0.372749420679E+03    0.10834E-03   -0.77102E-04  8301   0.699E-02    0.264E-01
RMM:  15    -0.372750413704E+03   -0.99302E-03   -0.43501E-04  8306   0.517E-02    0.298E-01
RMM:  16    -0.372750918720E+03   -0.50502E-03   -0.25303E-04  8267   0.421E-02    0.113E-01
RMM:  17    -0.372751387804E+03   -0.46908E-03   -0.89660E-05  8145   0.241E-02    0.859E-02
RMM:  18    -0.372752830232E+03   -0.14424E-02   -0.64625E-05  7522   0.189E-02    0.963E-02
RMM:  19    -0.372753536080E+03   -0.70585E-03   -0.41211E-05  6588   0.169E-02    0.455E-02
RMM:  20    -0.372754856660E+03   -0.13206E-02   -0.39368E-05  6079   0.136E-02    0.780E-02
RMM:  21    -0.372756346037E+03   -0.14894E-02   -0.39057E-05  5853   0.137E-02    0.422E-02
RMM:  22    -0.372756937224E+03   -0.59119E-03   -0.13287E-05  4798   0.835E-03    0.413E-02
RMM:  23    -0.372758543715E+03   -0.16065E-02   -0.31123E-05  5556   0.876E-03    0.401E-02
RMM:  24    -0.372759303961E+03   -0.76025E-03   -0.13875E-05  4917   0.782E-03    0.287E-02
RMM:  25    -0.372760582237E+03   -0.12783E-02   -0.28038E-05  5551   0.815E-03    0.378E-02
RMM:  26    -0.372761898791E+03   -0.13166E-02   -0.36288E-05  5830   0.886E-03    0.172E-02
RMM:  27    -0.372762361431E+03   -0.46264E-03   -0.10676E-05  4883   0.569E-03    0.218E-02
RMM:  28    -0.372762956248E+03   -0.59482E-03   -0.18746E-05  5210   0.586E-03    0.209E-02
RMM:  29    -0.372763089385E+03   -0.13314E-03   -0.47706E-06  4768   0.407E-03    0.169E-02
RMM:  30    -0.372763216214E+03   -0.12683E-03   -0.69154E-06  4872   0.345E-03    0.131E-02
RMM:  31    -0.372763225150E+03   -0.89361E-05   -0.28644E-06  4698   0.282E-03
   5 F= -.37276323E+03 E0= -.37276311E+03  d E =-.181816E+00  mag=    73.8580
       N       E                     dE             d eps       ncg     rms          rms(c)
DAV:   1    -0.372703325105E+03    0.59891E-01   -0.38373E+01  8370   0.938E+00    0.278E+00
RMM:   2    -0.373120987840E+03   -0.41766E+00   -0.60613E-01  8344   0.222E+00    0.932E+00
RMM:   3    -0.373337903199E+03   -0.21692E+00   -0.30286E-01  8344   0.135E+00    0.122E+01
RMM:   4    -0.373034417004E+03    0.30349E+00   -0.22123E-01  8340   0.115E+00    0.782E+00
RMM:   5    -0.372830179870E+03    0.20424E+00   -0.11969E-01  8338   0.916E-01    0.209E+00
RMM:   6    -0.372815836871E+03    0.14343E-01   -0.18807E-02  8332   0.357E-01    0.928E-01
RMM:   7    -0.372817000164E+03   -0.11633E-02   -0.68100E-03  8329   0.210E-01    0.118E+00
RMM:   8    -0.372812043064E+03    0.49571E-02   -0.42439E-03  8333   0.172E-01    0.589E-01
RMM:   9    -0.372812368150E+03   -0.32509E-03   -0.36370E-03  8330   0.151E-01    0.726E-01
RMM:  10    -0.372812094555E+03    0.27360E-03   -0.31617E-03  8331   0.137E-01    0.801E-01
RMM:  11    -0.372810303401E+03    0.17912E-02   -0.19577E-03  8320   0.113E-01    0.287E-01
RMM:  12    -0.372810821253E+03   -0.51785E-03   -0.83985E-04  8311   0.710E-02    0.366E-01
RMM:  13    -0.372810739926E+03    0.81327E-04   -0.42707E-04  8281   0.544E-02    0.143E-01
RMM:  14    -0.372810825273E+03   -0.85347E-04   -0.99323E-05  8171   0.254E-02    0.779E-02
RMM:  15    -0.372811162039E+03   -0.33677E-03   -0.50500E-05  7249   0.180E-02    0.104E-01
RMM:  16    -0.372811385814E+03   -0.22377E-03   -0.32807E-05  6019   0.159E-02    0.419E-02
RMM:  17    -0.372811645546E+03   -0.25973E-03   -0.16636E-05  4830   0.106E-02    0.492E-02
RMM:  18    -0.372812211079E+03   -0.56553E-03   -0.15197E-05  4834   0.994E-03    0.382E-02
RMM:  19    -0.372812409787E+03   -0.19871E-03   -0.63600E-06  4587   0.699E-03    0.166E-02
RMM:  20    -0.372812921715E+03   -0.51193E-03   -0.80988E-06  4718   0.591E-03    0.345E-02
RMM:  21    -0.372813403140E+03   -0.48143E-03   -0.72691E-06  4707   0.622E-03    0.194E-02
RMM:  22    -0.372813671948E+03   -0.26881E-03   -0.33089E-06  4586   0.396E-03    0.195E-02
RMM:  23    -0.372814287713E+03   -0.61576E-03   -0.64560E-06  4735   0.401E-03    0.157E-02
RMM:  24    -0.372814581558E+03   -0.29384E-03   -0.30584E-06  4619   0.351E-03    0.151E-02
RMM:  25    -0.372815358888E+03   -0.77733E-03   -0.13172E-05  4944   0.439E-03    0.169E-02
RMM:  26    -0.372815646574E+03   -0.28769E-03   -0.53544E-06  4801   0.380E-03    0.776E-03
RMM:  27    -0.372815862298E+03   -0.21572E-03   -0.47651E-06  4750   0.293E-03    0.116E-02
RMM:  28    -0.372815963418E+03   -0.10112E-03   -0.37434E-06  4682   0.276E-03    0.552E-03
RMM:  29    -0.372815974714E+03   -0.11296E-04   -0.84025E-07  3721   0.158E-03    0.671E-03
RMM:  30    -0.372815973026E+03    0.16883E-05   -0.76951E-07  3131   0.127E-03
   6 F= -.37281597E+03 E0= -.37281632E+03  d E =-.527479E-01  mag=    73.8730
       N       E                     dE             d eps       ncg     rms          rms(c)
DAV:   1    -0.372771026688E+03    0.44948E-01   -0.19021E+01  8334   0.659E+00    0.194E+00
RMM:   2    -0.372991827220E+03   -0.22080E+00   -0.29256E-01  8344   0.154E+00    0.683E+00
RMM:   3    -0.373078741776E+03   -0.86915E-01   -0.14246E-01  8344   0.923E-01    0.860E+00
RMM:   4    -0.372927533391E+03    0.15121E+00   -0.11215E-01  8342   0.823E-01    0.537E+00
RMM:   5    -0.372833237061E+03    0.94296E-01   -0.58398E-02  8340   0.642E-01    0.150E+00
RMM:   6    -0.372825591836E+03    0.76452E-02   -0.91879E-03  8333   0.250E-01    0.583E-01
RMM:   7    -0.372826231748E+03   -0.63991E-03   -0.31714E-03  8324   0.143E-01    0.818E-01
RMM:   8    -0.372823635127E+03    0.25966E-02   -0.20903E-03  8328   0.120E-01    0.436E-01
RMM:   9    -0.372823431460E+03    0.20367E-03   -0.17230E-03  8326   0.104E-01    0.450E-01
RMM:  10    -0.372823496845E+03   -0.65385E-04   -0.15226E-03  8320   0.951E-02    0.576E-01
RMM:  11    -0.372822497268E+03    0.99958E-03   -0.94910E-04  8308   0.791E-02    0.190E-01
RMM:  12    -0.372822681161E+03   -0.18389E-03   -0.33920E-04  8290   0.452E-02    0.213E-01
RMM:  13    -0.372822793125E+03   -0.11196E-03   -0.15165E-04  8223   0.324E-02    0.975E-02
RMM:  14    -0.372822853075E+03   -0.59950E-04   -0.38669E-05  6671   0.163E-02    0.473E-02
RMM:  15    -0.372823049891E+03   -0.19682E-03   -0.19970E-05  4900   0.117E-02    0.654E-02
RMM:  16    -0.372823240867E+03   -0.19098E-03   -0.14547E-05  4677   0.113E-02    0.282E-02
RMM:  17    -0.372823411103E+03   -0.17024E-03   -0.72262E-06  4561   0.703E-03    0.319E-02
RMM:  18    -0.372823790854E+03   -0.37975E-03   -0.74488E-06  4681   0.657E-03    0.279E-02
RMM:  19    -0.372823933560E+03   -0.14271E-03   -0.33688E-06  4539   0.504E-03    0.112E-02
RMM:  20    -0.372824227413E+03   -0.29385E-03   -0.35762E-06  4604   0.392E-03    0.222E-02
RMM:  21    -0.372824546902E+03   -0.31949E-03   -0.35083E-06  4623   0.413E-03    0.136E-02
RMM:  22    -0.372824731831E+03   -0.18493E-03   -0.18052E-06  4536   0.286E-03    0.140E-02
RMM:  23    -0.372825138700E+03   -0.40687E-03   -0.37351E-06  4649   0.287E-03    0.111E-02
RMM:  24    -0.372825311489E+03   -0.17279E-03   -0.15267E-06  4506   0.246E-03    0.105E-02
RMM:  25    -0.372825835481E+03   -0.52399E-03   -0.88850E-06  4836   0.329E-03    0.117E-02
RMM:  26    -0.372826002048E+03   -0.16657E-03   -0.32842E-06  4702   0.277E-03    0.502E-03
RMM:  27    -0.372826099170E+03   -0.97122E-04   -0.23659E-06  4480   0.201E-03    0.740E-03
RMM:  28    -0.372826136906E+03   -0.37736E-04   -0.15426E-06  4236   0.180E-03    0.294E-03
RMM:  29    -0.372826139992E+03   -0.30857E-05   -0.38097E-07  2710   0.111E-03
   7 F= -.37282614E+03 E0= -.37282675E+03  d E =-.629148E-01  mag=    73.8833
       N       E                     dE             d eps       ncg     rms          rms(c)
DAV:   1    -0.372821316505E+03    0.48204E-02   -0.94305E+00  8442   0.465E+00    0.107E+00
RMM:   2    -0.372917474515E+03   -0.96158E-01   -0.13915E-01  8342   0.109E+00    0.483E+00
RMM:   3    -0.372902761581E+03    0.14713E-01   -0.48958E-02  8343   0.548E-01    0.431E+00
RMM:   4    -0.372865727779E+03    0.37034E-01   -0.34269E-02  8339   0.453E-01    0.280E+00
RMM:   5    -0.372844356085E+03    0.21372E-01   -0.16884E-02  8342   0.342E-01    0.115E+00
RMM:   6    -0.372839681811E+03    0.46743E-02   -0.41126E-03  8330   0.171E-01    0.384E-01
RMM:   7    -0.372839668924E+03    0.12887E-04   -0.12326E-03  8325   0.880E-02    0.422E-01
RMM:   8    -0.372839117104E+03    0.55182E-03   -0.90719E-04  8327   0.754E-02    0.361E-01
RMM:   9    -0.372838708584E+03    0.40852E-03   -0.89440E-04  8310   0.760E-02    0.251E-01
RMM:  10    -0.372838999927E+03   -0.29134E-03   -0.75974E-04  8318   0.676E-02    0.411E-01
RMM:  11    -0.372838454895E+03    0.54503E-03   -0.46827E-04  8286   0.567E-02    0.128E-01
RMM:  12    -0.372838432536E+03    0.22359E-04   -0.10177E-04  8220   0.254E-02    0.680E-02
RMM:  13    -0.372838486912E+03   -0.54376E-04   -0.34449E-05  6326   0.152E-02    0.826E-02
RMM:  14    -0.372838495695E+03   -0.87831E-05   -0.17367E-05  4710   0.124E-02
   8 F= -.37283850E+03 E0= -.37283870E+03  d E =-.123557E-01  mag=    73.8883
       N       E                     dE             d eps       ncg     rms          rms(c)
DAV:   1    -0.372835911260E+03    0.25757E-02   -0.21751E+00  8370   0.223E+00    0.519E-01
RMM:   2    -0.372859362138E+03   -0.23451E-01   -0.33391E-02  8341   0.532E-01    0.238E+00
RMM:   3    -0.372855251339E+03    0.41108E-02   -0.11838E-02  8343   0.271E-01    0.211E+00
RMM:   4    -0.372845629270E+03    0.96221E-02   -0.78360E-03  8339   0.216E-01    0.130E+00
RMM:   5    -0.372841269607E+03    0.43597E-02   -0.38242E-03  8338   0.163E-01    0.585E-01
RMM:   6    -0.372840031105E+03    0.12385E-02   -0.10035E-03  8315   0.847E-02    0.188E-01
RMM:   7    -0.372840000846E+03    0.30259E-04   -0.27060E-04  8281   0.412E-02    0.192E-01
RMM:   8    -0.372839921025E+03    0.79821E-04   -0.22910E-04  8280   0.374E-02    0.189E-01
RMM:   9    -0.372839802339E+03    0.11869E-03   -0.21880E-04  8280   0.378E-02    0.103E-01
RMM:  10    -0.372839936129E+03   -0.13379E-03   -0.16795E-04  8273   0.318E-02    0.189E-01
RMM:  11    -0.372839883613E+03    0.52517E-04   -0.10004E-04  8110   0.263E-02    0.672E-02
RMM:  12    -0.372839895001E+03   -0.11388E-04   -0.19254E-05  4895   0.117E-02    0.258E-02
RMM:  13    -0.372839956638E+03   -0.61637E-04   -0.72335E-06  4531   0.718E-03    0.329E-02
RMM:  14    -0.372840000908E+03   -0.44270E-04   -0.37545E-06  4505   0.579E-03    0.139E-02
RMM:  15    -0.372840034689E+03   -0.33781E-04   -0.12046E-06  4428   0.287E-03    0.125E-02
RMM:  16    -0.372840134804E+03   -0.10012E-03   -0.14237E-06  4534   0.274E-03    0.139E-02
RMM:  17    -0.372840191227E+03   -0.56424E-04   -0.94244E-07  4494   0.257E-03    0.683E-03
RMM:  18    -0.372840271341E+03   -0.80113E-04   -0.87496E-07  4410   0.194E-03    0.991E-03
RMM:  19    -0.372840342662E+03   -0.71321E-04   -0.70980E-07  4351   0.195E-03    0.474E-03
RMM:  20    -0.372840391390E+03   -0.48729E-04   -0.33100E-07  3192   0.126E-03    0.610E-03
RMM:  21    -0.372840480671E+03   -0.89281E-04   -0.62915E-07  3225   0.128E-03    0.524E-03
RMM:  22    -0.372840522933E+03   -0.42262E-04   -0.24405E-07  2519   0.108E-03    0.412E-03
RMM:  23    -0.372840638506E+03   -0.11557E-03   -0.16269E-06  4162   0.153E-03    0.575E-03
RMM:  24    -0.372840704704E+03   -0.66199E-04   -0.99688E-07  3767   0.141E-03    0.319E-03
RMM:  25    -0.372840751094E+03   -0.46389E-04   -0.85097E-07  3214   0.124E-03    0.367E-03
RMM:  26    -0.372840774317E+03   -0.23223E-04   -0.64938E-07  2765   0.112E-03    0.133E-03
RMM:  27    -0.372840778504E+03   -0.41874E-05   -0.15354E-07  1694   0.948E-04
   9 F= -.37284078E+03 E0= -.37284081E+03  d E =-.146385E-01  mag=    73.9023
       N       E                     dE             d eps       ncg     rms          rms(c)
DAV:   1    -0.372839457867E+03    0.13164E-02   -0.21368E+00  8433   0.221E+00    0.505E-01
RMM:   2    -0.372863737419E+03   -0.24280E-01   -0.32203E-02  8341   0.523E-01    0.239E+00
RMM:   3    -0.372858113899E+03    0.56235E-02   -0.10755E-02  8341   0.256E-01    0.210E+00
RMM:   4    -0.372847398111E+03    0.10716E-01   -0.80787E-03  8334   0.222E-01    0.109E+00
RMM:   5    -0.372844660685E+03    0.27374E-02   -0.35019E-03  8344   0.156E-01    0.585E-01
RMM:   6    -0.372843480389E+03    0.11803E-02   -0.97976E-04  8301   0.835E-02    0.156E-01
RMM:   7    -0.372843541167E+03   -0.60778E-04   -0.28621E-04  8285   0.421E-02    0.212E-01
RMM:   8    -0.372843464942E+03    0.76225E-04   -0.23307E-04  8279   0.383E-02    0.188E-01
RMM:   9    -0.372843363724E+03    0.10122E-03   -0.18851E-04  8280   0.350E-02    0.964E-02
RMM:  10    -0.372843463935E+03   -0.10021E-03   -0.16422E-04  8275   0.311E-02    0.189E-01
RMM:  11    -0.372843351847E+03    0.11209E-03   -0.98920E-05  8045   0.260E-02    0.629E-02
RMM:  12    -0.372843342598E+03    0.92494E-05   -0.16257E-05  4678   0.106E-02
  10 F= -.37284334E+03 E0= -.37284328E+03  d E =-.256409E-02  mag=    73.8996
