 vasp.5.4.4.18Apr17-6-g9f103f2a35 (build Sep 06 2021 19:49:22) complex          
  
 executed on             LinuxIFC date 2022.01.05  04:50:13
 running on   72 total cores
 distrk:  each k-point on   72 cores,    1 groups
 distr:  one band on NCORES_PER_BAND=  24 cores,    3 groups


--------------------------------------------------------------------------------------------------------


 INCAR:
 POTCAR:    PAW_PBE Ni 02Aug2007                  
 POTCAR:    PAW_PBE Fe 06Sep2000                  

 ----------------------------------------------------------------------------- 
|                                                                             |
|           W    W    AA    RRRRR   N    N  II  N    N   GGGG   !!!           |
|           W    W   A  A   R    R  NN   N  II  NN   N  G    G  !!!           |
|           W    W  A    A  R    R  N N  N  II  N N  N  G       !!!           |
|           W WW W  AAAAAA  RRRRR   N  N N  II  N  N N  G  GGG   !            |
|           WW  WW  A    A  R   R   N   NN  II  N   NN  G    G                |
|           W    W  A    A  R    R  N    N  II  N    N   GGGG   !!!           |
|                                                                             |
|      For optimal performance we recommend to set                            |
|        NCORE= 4 - approx SQRT( number of cores)                             |
|      NCORE specifies how many cores store one orbital (NPAR=cpu/NCORE).     |
|      This setting can  greatly improve the performance of VASP for DFT.     |
|      The default,   NCORE=1            might be grossly inefficient         |
|      on modern multi-core architectures or massively parallel machines.     |
|      Do your own testing !!!!                                               |
|      Unfortunately you need to use the default for GW and RPA calculations. |
|      (for HF NCORE is supported but not extensively tested yet)             |
|                                                                             |
 ----------------------------------------------------------------------------- 

 POTCAR:    PAW_PBE Ni 02Aug2007                  
   VRHFIN =Ni:                                                                  
   LEXCH  = PE                                                                  
   EATOM  =  1077.6739 eV,   79.2068 Ry                                         
                                                                                
   TITEL  = PAW_PBE Ni 02Aug2007                                                
   LULTRA =        F    use ultrasoft PP ?                                      
   IUNSCR =        1    unscreen: 0-lin 1-nonlin 2-no                           
   RPACOR =    2.000    partial core radius                                     
   POMASS =   58.690; ZVAL   =   10.000    mass and valenz                      
   RCORE  =    2.300    outmost cutoff radius                                   
   RWIGS  =    2.430; RWIGS  =    1.286    wigner-seitz radius (au A)           
   ENMAX  =  269.532; ENMIN  =  202.149 eV                                      
   RCLOC  =    1.201    cutoff for local pot                                    
   LCOR   =        T    correct aug charges                                     
   LPAW   =        T    paw PP                                                  
   EAUG   =  544.565                                                            
   DEXC   =    0.000                                                            
   RMAX   =    2.357    core radius for proj-oper                               
   RAUG   =    1.300    factor for augmentation sphere                          
   RDEP   =    2.390    radius for radial grids                                 
   RDEPT  =    1.838    core radius for aug-charge                              
                                                                                
   Atomic configuration                                                         
    9 entries                                                                   
     n  l   j            E        occ.                                          
     1  0  0.50     -8206.4253   2.0000                                         
     2  0  0.50      -976.1748   2.0000                                         
     2  1  1.50      -839.0571   6.0000                                         
     3  0  0.50      -105.9991   2.0000                                         
     3  1  1.50       -66.4603   6.0000                                         
     3  2  2.50        -4.6458   9.0000                                         
     4  0  0.50        -4.4926   1.0000                                         
     4  1  1.50        -4.0817   0.0000                                         
     4  3  2.50        -1.3606   0.0000                                         
   Description                                                                  
     l       E           TYP  RCUT    TYP  RCUT                                 
     2     -4.6457903     23  2.300                                             
     2     -6.0063729     23  2.300                                             
     0     -4.4925590     23  2.300                                             
     0      5.0102601     23  2.300                                             
     1     -2.7211652     23  2.300                                             
     1     16.5183231     23  2.300                                             
  local pseudopotential read in
  partial core-charges read in
  partial kinetic energy density read in
  atomic valenz-charges read in
  non local Contribution for L=           2  read in
    real space projection operators read in
  non local Contribution for L=           2  read in
    real space projection operators read in
  non local Contribution for L=           0  read in
    real space projection operators read in
  non local Contribution for L=           0  read in
    real space projection operators read in
  non local Contribution for L=           1  read in
    real space projection operators read in
  non local Contribution for L=           1  read in
    real space projection operators read in
    PAW grid and wavefunctions read in
 
   number of l-projection  operators is LMAX  =           6
   number of lm-projection operators is LMMAX =          18
 
 POTCAR:    PAW_PBE Fe 06Sep2000                  
   VRHFIN =Fe:  d7 s1                                                           
   LEXCH  = PE                                                                  
   EATOM  =   594.3153 eV,   43.6809 Ry                                         
                                                                                
   TITEL  = PAW_PBE Fe 06Sep2000                                                
   LULTRA =        F    use ultrasoft PP ?                                      
   IUNSCR =        1    unscreen: 0-lin 1-nonlin 2-no                           
   RPACOR =    2.000    partial core radius                                     
   POMASS =   55.847; ZVAL   =    8.000    mass and valenz                      
   RCORE  =    2.300    outmost cutoff radius                                   
   RWIGS  =    2.460; RWIGS  =    1.302    wigner-seitz radius (au A)           
   ENMAX  =  267.882; ENMIN  =  200.911 eV                                      
   RCLOC  =    1.701    cutoff for local pot                                    
   LCOR   =        T    correct aug charges                                     
   LPAW   =        T    paw PP                                                  
   EAUG   =  511.368                                                            
   DEXC   =    0.000                                                            
   RMAX   =    2.356    core radius for proj-oper                               
   RAUG   =    1.300    factor for augmentation sphere                          
   RDEP   =    2.442    radius for radial grids                                 
   RDEPT  =    1.890    core radius for aug-charge                              
                                                                                
   Atomic configuration                                                         
    9 entries                                                                   
     n  l   j            E        occ.                                          
     1  0  0.50     -6993.8440   2.0000                                         
     2  0  0.50      -814.6047   2.0000                                         
     2  1  1.50      -693.3689   6.0000                                         
     3  0  0.50       -89.4732   2.0000                                         
     3  1  1.50       -55.6373   6.0000                                         
     3  2  2.50        -3.8151   7.0000                                         
     4  0  0.50        -4.2551   1.0000                                         
     4  1  1.50        -3.4015   0.0000                                         
     4  3  2.50        -1.3606   0.0000                                         
   Description                                                                  
     l       E           TYP  RCUT    TYP  RCUT                                 
     2     -3.8151135     23  2.300                                             
     2     -5.1756961     23  2.300                                             
     0     -4.2550963     23  2.300                                             
     0      7.2035603     23  2.300                                             
     1     -2.7211652     23  2.300                                             
     1     18.4316424     23  2.300                                             
  local pseudopotential read in
  partial core-charges read in
  partial kinetic energy density read in
  atomic valenz-charges read in
  non local Contribution for L=           2  read in
    real space projection operators read in
  non local Contribution for L=           2  read in
    real space projection operators read in
  non local Contribution for L=           0  read in
    real space projection operators read in
  non local Contribution for L=           0  read in
    real space projection operators read in
  non local Contribution for L=           1  read in
    real space projection operators read in
  non local Contribution for L=           1  read in
    real space projection operators read in
    PAW grid and wavefunctions read in
 
   number of l-projection  operators is LMAX  =           6
   number of lm-projection operators is LMMAX =          18
 
 Optimization of the real space projectors (new method)

 maximal supplied QI-value         = 16.25
 optimisation between [QCUT,QGAM] = [ 11.54, 23.24] = [ 37.28,151.24] Ry 
 Optimized for a Real-space Cutoff    1.45 Angstroem

   l    n(q)    QCUT    max X(q) W(low)/X(q) W(high)/X(q)  e(spline) 
   2      9    11.539    60.317    0.19E-03    0.47E-04    0.16E-06
   2      9    11.539    55.921    0.19E-03    0.48E-04    0.16E-06
   0     10    11.539    51.690    0.80E-04    0.50E-04    0.24E-06
   0     10    11.539    30.015    0.73E-04    0.45E-04    0.22E-06
   1     10    11.539    18.849    0.87E-04    0.16E-03    0.71E-07
   1     10    11.539    14.624    0.73E-04    0.13E-03    0.64E-07
 Optimization of the real space projectors (new method)

 maximal supplied QI-value         = 16.25
 optimisation between [QCUT,QGAM] = [ 11.54, 23.24] = [ 37.28,151.24] Ry 
 Optimized for a Real-space Cutoff    1.53 Angstroem

   l    n(q)    QCUT    max X(q) W(low)/X(q) W(high)/X(q)  e(spline) 
   2     10    11.539    80.901    0.11E-03    0.14E-03    0.21E-06
   2     10    11.539    75.754    0.11E-03    0.14E-03    0.22E-06
   0     11    11.539    58.752    0.52E-04    0.18E-04    0.33E-06
   0     11    11.539    30.679    0.44E-04    0.16E-04    0.30E-06
   1     10    11.539    17.977    0.53E-04    0.29E-04    0.13E-06
   1     10    11.539    13.559    0.44E-04    0.25E-04    0.11E-06
  PAW_PBE Ni 02Aug2007                  :
 energy of atom  1       EATOM=-1077.6739
 kinetic energy error for atom=    0.0030 (will be added to EATOM!!)
  PAW_PBE Fe 06Sep2000                  :
 energy of atom  2       EATOM= -594.3153
 kinetic energy error for atom=    0.0026 (will be added to EATOM!!)
 
 
 POSCAR: POSCAR                                  
  positions in direct lattice
  velocities in cartesian coordinates
 exchange correlation table for  LEXCH =        8
   RHO(1)=    0.500       N(1)  =     2000
   RHO(2)=  100.500       N(2)  =     4000
 


--------------------------------------------------------------------------------------------------------


 ion  position               nearest neighbor table
   1  0.000  0.999  0.286-  50 2.45  41 2.46  49 2.46  18 2.46  47 2.47   8 2.48   2 2.49   5 2.51
                             4 2.51  26 2.51   6 2.52  33 2.54
   2  0.249  1.000  0.284-  44 2.43  51 2.44  50 2.46  41 2.48  11 2.49   1 2.49  43 2.49   9 2.49
                            26 2.51   6 2.51   3 2.51  27 2.54
   3  0.499  0.999  0.286-  64 2.38  43 2.43  51 2.44  17 2.45  45 2.46  14 2.49   9 2.50   2 2.51
                             4 2.51  27 2.52  12 2.53  30 2.54
   4  0.750  0.999  0.287-  64 2.36  47 2.42  16 2.47  48 2.47  17 2.48  18 2.48   1 2.51   3 2.51
                            33 2.52  12 2.52   5 2.53  30 2.53
   5  0.002  0.250  0.286-  60 2.41  21 2.44  22 2.44   8 2.46  18 2.47  19 2.49  16 2.49   6 2.49
                             1 2.51  52 2.52  12 2.52   4 2.53
   6  0.251  0.251  0.284-  55 2.40  56 2.40  22 2.43  53 2.44  50 2.45  11 2.48   8 2.49  52 2.49
                             5 2.49   9 2.49   2 2.51   1 2.52
   7  0.083  0.166  0.096-  50 2.47  15 2.50  40 2.50  18 2.50  54 2.50  10 2.50  46 2.51  22 2.51
                            20 2.51
   8  0.088  0.170  0.380-   5 2.46  11 2.47   1 2.48   6 2.49  21 2.51  55 2.51  41 2.53  47 2.56
                            16 2.56
   9  0.498  0.248  0.284-  59 2.41  56 2.42  51 2.45  25 2.46  11 2.47   2 2.49   6 2.49  53 2.50
                            14 2.50   3 2.50  23 2.51  12 2.52
  10  0.333  0.167  0.096-  13 2.50  56 2.50   7 2.50  24 2.51  40 2.51  42 2.51  50 2.51  54 2.52
                            51 2.52
  11  0.334  0.169  0.379-   9 2.47   8 2.47   6 2.48   2 2.49  25 2.50  41 2.52  55 2.52  43 2.54
                            14 2.54
  12  0.751  0.251  0.286-  58 2.39  60 2.40  59 2.41  17 2.45  16 2.46  14 2.46  19 2.49  23 2.50
                             5 2.52   9 2.52   4 2.52   3 2.53
  13  0.582  0.167  0.097-  51 2.48  24 2.49  42 2.50  17 2.50  10 2.50  63 2.52  59 2.52  57 2.52
                            15 2.53
  14  0.587  0.169  0.380-  16 2.45  12 2.46   3 2.49  64 2.49  58 2.49   9 2.50  43 2.52  25 2.53
                            11 2.54
  15  0.834  0.167  0.096-  20 2.49  60 2.49  18 2.49  46 2.49   7 2.50  17 2.51  63 2.51  57 2.53
                            13 2.53
  16  0.832  0.169  0.380-  14 2.45  12 2.46   4 2.47  58 2.49   5 2.49  64 2.50  47 2.53  21 2.53
                             8 2.56
  17  0.666  0.083  0.193-   3 2.45  12 2.45  60 2.47  51 2.48   4 2.48  59 2.49  13 2.50  45 2.50
                            48 2.51  15 2.51  63 2.51  18 2.52
  18  0.916  0.082  0.192-  50 2.46   1 2.46  60 2.47   5 2.47   4 2.48  46 2.48  15 2.49  49 2.50
                            48 2.50   7 2.50  22 2.51  17 2.52
  19  0.001  0.498  0.284-  60 2.41  58 2.42  21 2.46  39 2.46  61 2.47  27 2.48   5 2.49  12 2.49
                            29 2.49  52 2.52  26 2.52  23 2.54
  20  0.081  0.416  0.096-  61 2.48  15 2.49  57 2.49  22 2.50  54 2.51  28 2.51   7 2.51  31 2.52
                            60 2.53
  21  0.086  0.419  0.378-   5 2.44  52 2.45  19 2.46  29 2.47  32 2.48  55 2.49   8 2.51  58 2.53
                            16 2.53
  22  0.166  0.334  0.192-   6 2.43  52 2.44   5 2.44  60 2.49  54 2.49  36 2.50  20 2.50  50 2.50
                             7 2.51  18 2.51  56 2.52  61 2.54
  23  0.748  0.499  0.284-  59 2.39  58 2.41  25 2.45  39 2.46  62 2.47  33 2.48  38 2.48  12 2.50
                            26 2.51   9 2.51  53 2.52  19 2.54
  24  0.584  0.416  0.096-  13 2.49  62 2.49  57 2.50  10 2.51  56 2.51  34 2.51  37 2.52  54 2.53
                            59 2.54
  25  0.582  0.419  0.377-  23 2.45   9 2.46  53 2.47  38 2.47  35 2.48  55 2.48  11 2.50  58 2.53
                            14 2.53
  26  0.999  0.748  0.286-  29 2.45  41 2.46  38 2.46  49 2.47  39 2.48  44 2.48  27 2.51  23 2.51
                             2 2.51   1 2.51  33 2.52  19 2.52
  27  0.248  0.746  0.285-  61 2.44  45 2.45  44 2.48  32 2.48  19 2.48  52 2.48  43 2.49  29 2.49
                            30 2.51  26 2.51   3 2.52   2 2.54
  28  0.084  0.668  0.095-  61 2.47  39 2.50  40 2.50  37 2.50  31 2.50  42 2.50  57 2.51  44 2.51
                            20 2.51
  29  0.080  0.662  0.380-  26 2.45  58 2.46  21 2.47  38 2.48  27 2.49  19 2.49  41 2.53  32 2.54
                            43 2.56
  30  0.498  0.745  0.286-  64 2.42  35 2.43  32 2.44  52 2.45  48 2.47  36 2.47  45 2.47  33 2.50
                            53 2.50  27 2.51   4 2.53   3 2.54
  31  0.333  0.667  0.094-  61 2.47  42 2.50  54 2.50  28 2.50  63 2.50  34 2.51  36 2.52  45 2.52
                            20 2.52
  32  0.335  0.665  0.380-  30 2.44  55 2.45  35 2.46  52 2.47  21 2.48  27 2.48  43 2.52  64 2.52
                            29 2.54
  33  0.747  0.746  0.286-  62 2.44  48 2.46  49 2.47  35 2.47  23 2.48  38 2.48  47 2.49  30 2.50
                            26 2.52   4 2.52  53 2.52   1 2.54
  34  0.583  0.667  0.095-  62 2.47  36 2.50  63 2.50  46 2.51  31 2.51  37 2.51  54 2.51  24 2.51
                            48 2.53
  35  0.579  0.665  0.380-  30 2.43  55 2.45  32 2.46  33 2.47  25 2.48  47 2.53  64 2.53  38 2.55
                            53 2.55
  36  0.417  0.582  0.191-  53 2.40  52 2.44  54 2.47  30 2.47  22 2.50  34 2.50  62 2.50  45 2.51
                            56 2.51  48 2.51  61 2.51  31 2.52
  37  0.834  0.668  0.095-  62 2.47  40 2.50  57 2.50  39 2.50  28 2.50  46 2.51  49 2.51  34 2.51
                            24 2.52
  38  0.832  0.662  0.380-  58 2.45  26 2.46  25 2.47  23 2.48  33 2.48  29 2.48  41 2.54  35 2.55
                            47 2.56
  39  0.917  0.583  0.191-  19 2.46  23 2.46  26 2.48  57 2.49  28 2.50  37 2.50  61 2.50  49 2.51
                            59 2.51  62 2.51  44 2.51  60 2.56
  40  0.083  0.917  0.095-  50 2.49  44 2.49  37 2.50  28 2.50   7 2.50  10 2.51  49 2.51  46 2.51
                            42 2.52
  41  0.084  0.916  0.380-  26 2.46   1 2.46   2 2.48  11 2.52  43 2.52  29 2.53   8 2.53  38 2.54
                            47 2.54
  42  0.334  0.917  0.095-  51 2.48  13 2.50  63 2.50  31 2.50  44 2.50  28 2.50  10 2.51  45 2.51
                            40 2.52
  43  0.336  0.917  0.379-   3 2.43  64 2.48  27 2.49   2 2.49  32 2.52  41 2.52  14 2.52  11 2.54
                            29 2.56
  44  0.167  0.835  0.191-   2 2.43  51 2.47  27 2.48  26 2.48  61 2.49  49 2.49  40 2.49  42 2.50
                            50 2.50  28 2.51  39 2.51  45 2.53
  45  0.417  0.832  0.192-  27 2.45   3 2.46  61 2.47  51 2.47  30 2.47  48 2.49  63 2.50  17 2.50
                            36 2.51  42 2.51  31 2.52  44 2.53
  46  0.832  0.917  0.096-  18 2.48  48 2.49  15 2.49  63 2.50  49 2.50   7 2.51  34 2.51  37 2.51
                            40 2.51
  47  0.831  0.917  0.380-   4 2.42   1 2.47  33 2.49  64 2.49  35 2.53  16 2.53  41 2.54   8 2.56
                            38 2.56
  48  0.666  0.833  0.192-  33 2.46  62 2.47   4 2.47  30 2.47  45 2.49  46 2.49  18 2.50  63 2.50
                            17 2.51  36 2.51  49 2.52  34 2.53
  49  0.917  0.833  0.192-   1 2.46  62 2.46  26 2.47  33 2.47  50 2.47  44 2.49  18 2.50  46 2.50
                            39 2.51  40 2.51  37 2.51  48 2.52
  50  0.162  0.082  0.191-   6 2.45   1 2.45  18 2.46   2 2.46   7 2.47  49 2.47  40 2.49  44 2.50
                            22 2.50  10 2.51  56 2.53  51 2.57
  51  0.416  0.078  0.192-   3 2.44   2 2.44   9 2.45  44 2.47  45 2.47  42 2.48  17 2.48  13 2.48
                            10 2.52  59 2.54  56 2.54  50 2.57
  52  0.254  0.501  0.285-  55 2.33  22 2.44  36 2.44  30 2.45  21 2.45  53 2.45  32 2.47  27 2.48
                             6 2.49  61 2.51  19 2.52   5 2.52
  53  0.495  0.495  0.282-  56 2.36  55 2.37  36 2.40   6 2.44  52 2.45  62 2.47  25 2.47   9 2.50
                            30 2.50  23 2.52  33 2.52  35 2.55
  54  0.331  0.417  0.096-  36 2.47  22 2.49  31 2.50   7 2.50  20 2.51  34 2.51  10 2.52  56 2.53
                            24 2.53
  55  0.336  0.421  0.373-  52 2.33  53 2.37   6 2.40  35 2.45  32 2.45  25 2.48  21 2.49   8 2.51
                            11 2.52
  56  0.416  0.331  0.193-  53 2.36   6 2.40   9 2.42  10 2.50  24 2.51  36 2.51  59 2.51  22 2.52
                            50 2.53  54 2.53  51 2.54  62 2.56
  57  0.834  0.418  0.094-  20 2.49  39 2.49  24 2.50  37 2.50  28 2.51  13 2.52  15 2.53  59 2.56
                            60 2.59
  58  0.834  0.418  0.375-  12 2.39  23 2.41  19 2.42  38 2.45  29 2.46  14 2.49  16 2.49  21 2.53
                            25 2.53
  59  0.667  0.332  0.194-  23 2.39   9 2.41  12 2.41  17 2.49  60 2.51  39 2.51  56 2.51  13 2.52
                            51 2.54  24 2.54  57 2.56  62 2.57
  60  0.914  0.327  0.194-  12 2.40  19 2.41   5 2.41  18 2.47  17 2.47  22 2.49  15 2.49  59 2.51
                            20 2.53  39 2.56  57 2.59  61 2.59
  61  0.169  0.588  0.189-  27 2.44  45 2.47  28 2.47  31 2.47  19 2.47  20 2.48  44 2.49  39 2.50
                            52 2.51  36 2.51  22 2.54  60 2.59
  62  0.670  0.589  0.190-  33 2.44  49 2.46  48 2.47  37 2.47  53 2.47  34 2.47  23 2.47  24 2.49
                            36 2.50  39 2.51  56 2.56  59 2.57
  63  0.583  0.917  0.096-  46 2.50  45 2.50  42 2.50  48 2.50  31 2.50  34 2.50  17 2.51  15 2.51
                            13 2.52
  64  0.584  0.919  0.375-   4 2.36   3 2.38  30 2.42  43 2.48  14 2.49  47 2.49  16 2.50  32 2.52
                            35 2.53
 

IMPORTANT INFORMATION: All symmetrisations will be switched off!
NOSYMM: (Re-)initialisation of all symmetry stuff for point group C_1.

 
 

Automatic generation of k-mesh.
 generate k-points for:    3    3    1
Space group operators:
 irot       det(A)        alpha          n_x          n_y          n_z        tau_x        tau_y        tau_z
    1     1.000000     0.000000     1.000000     0.000000     0.000000     0.000000     0.000000     0.000000
 
 Subroutine IBZKPT returns following result:
 ===========================================
 
 Found      5 irreducible k-points:
 
 Following reciprocal coordinates:
            Coordinates               Weight
  0.000000  0.000000  0.000000      1.000000
  0.333333  0.000000  0.000000      2.000000
  0.000000  0.333333  0.000000      2.000000
  0.333333  0.333333  0.000000      2.000000
 -0.333333  0.333333  0.000000      2.000000
 
 Following cartesian coordinates:
            Coordinates               Weight
  0.000000  0.000000  0.000000      1.000000
  0.033244  0.019194  0.000000      2.000000
  0.000000  0.038387  0.000000      2.000000
  0.033244  0.057581  0.000000      2.000000
 -0.033244  0.019194  0.000000      2.000000
 


--------------------------------------------------------------------------------------------------------




 Dimension of arrays:
   k-points           NKPTS =      5   k-points in BZ     NKDIM =      5   number of bands    NBANDS=    414
   number of dos      NEDOS =    301   number of ions     NIONS =     64
   non local maximal  LDIM  =      6   non local SUM 2l+1 LMDIM =     18
   total plane-waves  NPLWV = ******
   max r-space proj   IRMAX =   8439   max aug-charges    IRDMAX=  19969
   dimension x,y,z NGX =    80 NGY =   80 NGZ =  160
   dimension x,y,z NGXF=   160 NGYF=  160 NGZF=  320
   support grid    NGXF=   160 NGYF=  160 NGZF=  320
   ions per type =              49  15
   NGX,Y,Z   is equivalent  to a cutoff of  13.26, 13.26, 12.55 a.u.
   NGXF,Y,Z  is equivalent  to a cutoff of  26.53, 26.53, 25.11 a.u.

 SYSTEM =  SQS-NiFe                                
 POSCAR =  POSCAR                                  

 Startparameter for this run:
   NWRITE =      2    write-flag & timer
   PREC   = accura    normal or accurate (medium, high low for compatibility)
   ISTART =      0    job   : 0-new  1-cont  2-samecut
   ICHARG =      1    charge: 1-file 2-atom 10-const
   ISPIN  =      2    spin polarized calculation?
   LNONCOLLINEAR =      F non collinear calculations
   LSORBIT =      F    spin-orbit coupling
   INIWAV =      1    electr: 0-lowe 1-rand  2-diag
   LASPH  =      F    aspherical Exc in radial PAW
   METAGGA=      F    non-selfconsistent MetaGGA calc.

 Electronic Relaxation 1
   ENCUT  =  520.0 eV  38.22 Ry    6.18 a.u.  18.64 18.64 39.40*2*pi/ulx,y,z
   ENINI  =  520.0     initial cutoff
   ENAUG  =  544.6 eV  augmentation charge cutoff
   NELM   =    200;   NELMIN=  2; NELMDL= -5     # of ELM steps 
   EDIFF  = 0.1E-04   stopping-criterion for ELM
   LREAL  =      T    real-space projection
   NLSPLINE    = F    spline interpolate recip. space projectors
   LCOMPAT=      F    compatible to vasp.4.4
   GGA_COMPAT  = T    GGA compatible to vasp.4.4-vasp.4.6
   LMAXPAW     = -100 max onsite density
   LMAXMIX     =    2 max onsite mixed and CHGCAR
   VOSKOWN=      0    Vosko Wilk Nusair interpolation
   ROPT   =   -0.00025  -0.00025
 Ionic relaxation
   EDIFFG = -.5E-01   stopping-criterion for IOM
   NSW    =     99    number of steps for IOM
   NBLOCK =      1;   KBLOCK =     99    inner block; outer block 
   IBRION =      2    ionic relax: 0-MD 1-quasi-New 2-CG
   NFREE  =      1    steps in history (QN), initial steepest desc. (CG)
   ISIF   =      2    stress and relaxation
   IWAVPR =     11    prediction:  0-non 1-charg 2-wave 3-comb
   ISYM   =      0    0-nonsym 1-usesym 2-fastsym
   LCORR  =      T    Harris-Foulkes like correction to forces

   POTIM  = 0.5000    time-step for ionic-motion
   TEIN   =    0.0    initial temperature
   TEBEG  =    0.0;   TEEND  =   0.0 temperature during run
   SMASS  =  -3.00    Nose mass-parameter (am)
   estimated Nose-frequenzy (Omega)   =  0.10E-29 period in steps =****** mass=  -0.230E-26a.u.
   SCALEE = 1.0000    scale energy and forces
   NPACO  =    256;   APACO  = 16.0  distance and # of slots for P.C.
   PSTRESS=    0.0 pullay stress

  Mass of Ions in am
   POMASS =  58.69 55.85
  Ionic Valenz
   ZVAL   =  10.00  8.00
  Atomic Wigner-Seitz radii
   RWIGS  =  -1.00 -1.00
  virtual crystal weights 
   VCA    =   1.00  1.00
   NELECT =     610.0000    total number of electrons
   NUPDOWN=      -1.0000    fix difference up-down

 DOS related values:
   EMIN   =  10.00;   EMAX   =-10.00  energy-range for DOS
   EFERMI =   0.00
   ISMEAR =     1;   SIGMA  =   0.20  broadening in eV -4-tet -1-fermi 0-gaus

 Electronic relaxation 2 (details)
   IALGO  =     68    algorithm
   LDIAG  =      T    sub-space diagonalisation (order eigenvalues)
   LSUBROT=      F    optimize rotation matrix (better conditioning)
   TURBO    =      0    0=normal 1=particle mesh
   IRESTART =      0    0=no restart 2=restart with 2 vectors
   NREBOOT  =      0    no. of reboots
   NMIN     =      0    reboot dimension
   EREF     =   0.00    reference energy to select bands
   IMIX   =      4    mixing-type and parameters
     AMIX     =   0.40;   BMIX     =  1.00
     AMIX_MAG =   1.60;   BMIX_MAG =  1.00
     AMIN     =   0.10
     WC   =   100.;   INIMIX=   1;  MIXPRE=   1;  MAXMIX= -45

 Intra band minimization:
   WEIMIN = 0.0010     energy-eigenvalue tresh-hold
   EBREAK =  0.60E-08  absolut break condition
   DEPER  =   0.30     relativ break condition  

   TIME   =   0.40     timestep for ELM

  volume/ion in A,a.u.               =      28.83       194.53
  Fermi-wavevector in a.u.,A,eV,Ry     =   1.132042  2.139249 17.436121  1.281519
  Thomas-Fermi vector in A             =   2.268742
 
 Write flags
   LWAVE        =      F    write WAVECAR
   LDOWNSAMPLE  =      F    k-point downsampling of WAVECAR
   LCHARG       =      T    write CHGCAR
   LVTOT        =      F    write LOCPOT, total local potential
   LVHAR        =      F    write LOCPOT, Hartree potential only
   LELF         =      F    write electronic localiz. function (ELF)
   LORBIT       =     10    0 simple, 1 ext, 2 COOP (PROOUT), +10 PAW based schemes


 Dipole corrections
   LMONO  =      F    monopole corrections only (constant potential shift)
   LDIPOL =      T    correct potential (dipole corrections)
   IDIPOL =      3    1-x, 2-y, 3-z, 4-all directions 
   EPSILON=  1.0000000 bulk dielectric constant

 Exchange correlation treatment:
   GGA     =    --    GGA type
   LEXCH   =     8    internal setting for exchange type
   VOSKOWN=      0    Vosko Wilk Nusair interpolation
   LHFCALC =     F    Hartree Fock is set to
   LHFONE  =     F    Hartree Fock one center treatment
   AEXX    =    0.0000 exact exchange contribution

 Linear response parameters
   LEPSILON=     F    determine dielectric tensor
   LRPA    =     F    only Hartree local field effects (RPA)
   LNABLA  =     F    use nabla operator in PAW spheres
   LVEL    =     F    velocity operator in full k-point grid
   LINTERFAST=   F  fast interpolation
   KINTER  =     0    interpolate to denser k-point grid
   CSHIFT  =0.1000    complex shift for real part using Kramers Kronig
   OMEGAMAX=  -1.0    maximum frequency
   DEG_THRESHOLD= 0.2000000E-02 threshold for treating states as degnerate
   RTIME   =   -0.100 relaxation time in fs
  (WPLASMAI=    0.000 imaginary part of plasma frequency in eV, 0.658/RTIME)
   DFIELD  = 0.0000000 0.0000000 0.0000000 field for delta impulse in time
 
 Orbital magnetization related:
   ORBITALMAG=     F  switch on orbital magnetization
   LCHIMAG   =     F  perturbation theory with respect to B field
   DQ        =  0.001000  dq finite difference perturbation B field
   LLRAUG    =     F  two centre corrections for induced B field



--------------------------------------------------------------------------------------------------------


 conjugate gradient relaxation of ions
   using selective dynamics as specified on POSCAR
 charge density and potential will be updated during run
 spin polarized calculation
 RMM-DIIS sequential band-by-band and
  variant of blocked Davidson during initial phase
 perform sub-space diagonalisation
    before iterative eigenvector-optimisation
 modified Broyden-mixing scheme, WC =      100.0
 initial mixing is a Kerker type mixing with AMIX =  0.4000 and BMIX =      1.0000
 Hartree-type preconditioning will be used
 using additional bands          109
 real space projection scheme for non local part
 use partial core corrections
 calculate Harris-corrections to forces 
   (improved forces if not selfconsistent)
 use gradient corrections 
 use of overlap-Matrix (Vanderbilt PP)
 Methfessel and Paxton  Order N= 1 SIGMA  =   0.20


--------------------------------------------------------------------------------------------------------


  energy-cutoff  :      520.00
  volume of cell :     1844.87
      direct lattice vectors                 reciprocal lattice vectors
    10.026770000  0.000000000  0.000000000     0.099733015  0.057580883  0.000000000
    -5.013385000  8.683437540  0.000000000     0.000000000  0.115161766  0.000000000
     0.000000000  0.000000000 21.189179560     0.000000000  0.000000000  0.047193899

  length of vectors
    10.026770000 10.026770002 21.189179560     0.115161766  0.115161766  0.047193899


 
 k-points in units of 2pi/SCALE and weight: read from INCAR                         
   0.00000000  0.00000000  0.00000000       0.111
   0.03324434  0.01919363  0.00000000       0.222
   0.00000000  0.03838726  0.00000000       0.222
   0.03324434  0.05758088  0.00000000       0.222
  -0.03324434  0.01919363  0.00000000       0.222
 
 k-points in reciprocal lattice and weights: read from INCAR                         
   0.00000000  0.00000000  0.00000000       0.111
   0.33333333  0.00000000  0.00000000       0.222
   0.00000000  0.33333333  0.00000000       0.222
   0.33333333  0.33333333  0.00000000       0.222
  -0.33333333  0.33333333  0.00000000       0.222
 
 position of ions in fractional coordinates (direct lattice) 
   0.00010004  0.99936030  0.28616609
   0.24882677  0.99970802  0.28432961
   0.49888621  0.99871616  0.28572761
   0.74972175  0.99880197  0.28719429
   0.00212474  0.25033405  0.28583837
   0.25138577  0.25139495  0.28362033
   0.08288200  0.16633200  0.09567643
   0.08782533  0.17015271  0.37998020
   0.49835713  0.24774683  0.28430307
   0.33293900  0.16685800  0.09574221
   0.33370565  0.16915345  0.37915089
   0.75138857  0.25132741  0.28561569
   0.58230700  0.16720100  0.09670311
   0.58716053  0.16876703  0.38009468
   0.83403200  0.16672400  0.09645071
   0.83161435  0.16904582  0.38045924
   0.66558100  0.08305500  0.19258252
   0.91639700  0.08203100  0.19204933
   0.00115032  0.49792298  0.28366328
   0.08092200  0.41609700  0.09594766
   0.08626100  0.41918524  0.37811123
   0.16611800  0.33395200  0.19207541
   0.74833037  0.49923553  0.28394867
   0.58357300  0.41617200  0.09593346
   0.58188761  0.41865876  0.37713550
   0.99949305  0.74847705  0.28644790
   0.24837410  0.74617013  0.28502633
   0.08375800  0.66810400  0.09479725
   0.07984311  0.66222035  0.38002180
   0.49794638  0.74536216  0.28644845
   0.33297400  0.66727700  0.09438780
   0.33473816  0.66523523  0.38002541
   0.74715926  0.74597345  0.28565356
   0.58298100  0.66668200  0.09450950
   0.57947991  0.66468733  0.37982144
   0.41661000  0.58200200  0.19081663
   0.83395900  0.66770600  0.09497894
   0.83194521  0.66182530  0.38022886
   0.91708300  0.58323900  0.19079431
   0.08291700  0.91685800  0.09518613
   0.08416902  0.91633947  0.37985636
   0.33420600  0.91705400  0.09538173
   0.33595692  0.91712959  0.37923327
   0.16670900  0.83524200  0.19136546
   0.41703500  0.83214900  0.19205861
   0.83233100  0.91715000  0.09633654
   0.83103194  0.91685857  0.37994439
   0.66623900  0.83337000  0.19234085
   0.91705900  0.83319500  0.19216177
   0.16168500  0.08211500  0.19130606
   0.41607500  0.07807100  0.19177260
   0.25363966  0.50108082  0.28488056
   0.49497145  0.49481741  0.28171028
   0.33134100  0.41714300  0.09577612
   0.33571692  0.42149755  0.37259835
   0.41638400  0.33144300  0.19252196
   0.83354800  0.41839000  0.09448777
   0.83392864  0.41842325  0.37518682
   0.66732400  0.33240600  0.19435479
   0.91446400  0.32695500  0.19396504
   0.16914200  0.58833400  0.18947786
   0.66961600  0.58928900  0.18986007
   0.58310400  0.91651500  0.09583494
   0.58375143  0.91919630  0.37548679
 
 position of ions in cartesian coordinates  (Angst):
  -5.00917492  8.67788277  6.06362472
  -2.51699239  8.68090215  6.02471110
  -0.00473135  8.67228939  6.05433364
   2.50990869  8.67303456  6.08541143
  -1.23371671  2.17376009  6.05668065
   1.26024764  2.18297233  6.00968217
  -0.00284760  1.44433353  2.02730505
   0.02756331  1.47751041  8.05146877
   3.75486207  2.15129409  6.02414873
   2.50177938  1.44890102  2.02869888
   2.49795839  1.46883342  8.03389637
   6.27399924  2.18238591  6.05196206
   5.00041537  1.45187944  2.04905956
   5.04122954  1.46547793  8.05389436
   7.52679544  1.44773744  2.04371141
   7.49091401  1.46789881  8.06161909
   6.25724091  0.72120290  4.08066560
   8.77724896  0.71231106  4.06936774
  -2.48474563  4.32368309  6.01059210
  -1.27466818  3.61315231  2.03305220
  -1.23661782  3.63996883  8.01186671
  -0.00860297  2.89985133  4.06992035
   5.00047662  4.33508053  6.01663944
   3.76492179  3.61380357  2.03275131
   3.73555565  3.63539717  7.99119175
   6.26928328  6.49935371  6.06959603
  -1.25044814  6.47932172  6.03947410
  -2.50964037  5.80143935  2.00867595
  -2.51939709  5.75034901  8.05235010
   1.25600634  6.47230578  6.06960771
  -0.00666279  5.79425815  2.00000004
   0.02126226  5.77652857  8.05242663
   3.75174198  6.47761388  6.05276456
   2.50308286  5.78909151  2.00257877
   2.47797825  5.77177093  8.04810460
   1.25945255  5.05377802  4.04324784
   5.01444784  5.79798335  2.01252581
   5.02373827  5.74691868  8.05673751
   6.27137866  5.06451943  4.04277489
  -3.76517246  7.96147918  2.01691600
  -3.75001913  7.95697652  8.04884464
  -1.24653807  7.96318113  2.02106060
  -1.22936091  7.96383750  8.03564178
  -2.51583691  7.25277174  4.05487709
   0.00963071  7.22591387  4.06956437
   3.74756545  7.96401474  2.04129224
   3.73600115  7.96148412  8.05070991
   2.50222056  7.23651634  4.07554481
   5.01801235  7.23499674  4.07175025
   1.20950420  0.71304047  4.05361846
   3.78048835  0.67792465  4.06350406
   0.03107544  4.35110404  6.03638528
   2.48225474  4.29671607  5.96920975
   1.23098154  3.62223519  2.02941740
   1.25302684  3.66004761  7.89505341
   2.51333524  2.87806459  4.07938238
   6.26024393  3.63306343  2.00211832
   6.26389380  3.63335220  7.94990093
   5.02462501  2.88642674  4.11821854
   7.52996891  2.83909332  4.10996006
  -1.25359692  5.10876154  4.01488040
   3.75975299  5.11705422  4.02297911
   1.25180714  7.95850076  2.03066375
   1.24485638  7.98178363  7.95625707
 


--------------------------------------------------------------------------------------------------------


 k-point  1 :   0.0000 0.0000 0.0000  plane waves:   49741
 k-point  2 :   0.3333 0.0000 0.0000  plane waves:   49680
 k-point  3 :   0.0000 0.3333 0.0000  plane waves:   49680
 k-point  4 :   0.3333 0.3333 0.0000  plane waves:   49662
 k-point  5 :  -0.3333 0.3333 0.0000  plane waves:   49680

 maximum and minimum number of plane-waves per node :      2099     2053

 maximum number of plane-waves:     49741
 maximum index in each direction: 
   IXMAX=   18   IYMAX=   18   IZMAX=   39
   IXMIN=  -18   IYMIN=  -18   IZMIN=  -39


 real space projection operators:
  total allocation   :      64143.42 KBytes
  max/ min on nodes  :       3235.22       2357.44


 parallel 3D FFT for wavefunctions:
    minimum data exchange during FFTs selected (reduces bandwidth)
 parallel 3D FFT for charge:
    minimum data exchange during FFTs selected (reduces bandwidth)


 total amount of memory used by VASP MPI-rank0   113076. kBytes
=======================================================================

   base      :      30000. kBytes
   nonlr-proj:      13096. kBytes
   fftplans  :       6402. kBytes
   grid      :      16455. kBytes
   one-center:         93. kBytes
   wavefun   :      47030. kBytes
 
     INWAV:  cpu time    0.0000: real time    0.0002
 Broyden mixing: mesh for mixing (old mesh)
   NGX = 37   NGY = 37   NGZ = 79
  (NGX  =160   NGY  =160   NGZ  =320)
  gives a total of 108151 points

 initial charge density was supplied:
 number of electron     610.0000136 magnetization      94.0000000
 keeping initial charge density in first step


--------------------------------------------------------------------------------------------------------


 Maximum index for non-local projection operator          764
 Maximum index for augmentation-charges         1117 (set IRDMAX)


--------------------------------------------------------------------------------------------------------


 First call to EWALD:  gamma=   0.145
 Maximum number of real-space cells 4x 4x 2
 Maximum number of reciprocal cells 2x 2x 4

    FEWALD:  cpu time    0.0030: real time    0.0026


--------------------------------------- Iteration      1(   1)  ---------------------------------------


    POTLOK:  cpu time    0.2500: real time    0.2537
    SETDIJ:  cpu time    0.0180: real time    0.0199
     EDDAV:  cpu time   24.5873: real time   24.6706
       DOS:  cpu time    0.0060: real time    0.0051
    --------------------------------------------
      LOOP:  cpu time   24.8612: real time   24.9493

 eigenvalue-minimisations  :  8280
 total energy-change (2. order) : 0.4617362E+04  (-0.2682400E+05)
 number of electron     610.0000136 magnetization      94.0000000
 augmentation part      610.0000136 magnetization      94.0000000

 DIPCOR: dipole corrections for dipol
 direction  3 min pos   225,
 dipolmoment           0.000000      0.000000      0.026935 electrons x Angstroem
 Tr[quadrupol]    -10008.131051

 energy correction for charged system         0.000000 eV
 dipol+quadrupol energy correction           -0.000036 eV
 added-field ion interaction         -1.316544 eV  (added to PSCEN)


 Free energy of the ion-electron system (eV)
  ---------------------------------------------------
  alpha Z        PSCENC =      1253.43578287
  Ewald energy   TEWEN  =    219083.31569302
  -Hartree energ DENC   =   -279322.61156418
  -exchange      EXHF   =         0.00000000
  -V(xc)+E(xc)   XCENC  =      1559.32423806
  PAW double counting   =     65004.23933887   -68475.70242463
  entropy T*S    EENTRO =         0.01970664
  eigenvalues    EBANDS =      3794.77598892
  atomic energy  EATOM  =     61720.56526127
  Solvation  Ediel_sol  =         0.00000000
  ---------------------------------------------------
  free energy    TOTEN  =      4617.36202086 eV

  energy without entropy =     4617.34231421  energy(sigma->0) =     4617.35545197


--------------------------------------------------------------------------------------------------------




--------------------------------------- Iteration      1(   2)  ---------------------------------------


     EDDAV:  cpu time   24.3963: real time   24.4809
       DOS:  cpu time    0.0060: real time    0.0065
    --------------------------------------------
      LOOP:  cpu time   24.4023: real time   24.4875

 eigenvalue-minimisations  :  8280
 total energy-change (2. order) :-0.4529467E+04  (-0.4264614E+04)
 number of electron     610.0000136 magnetization      94.0000000
 augmentation part      610.0000136 magnetization      94.0000000

 DIPCOR: dipole corrections for dipol
 direction  3 min pos   225,
 dipolmoment           0.000000      0.000000      0.026935 electrons x Angstroem
 Tr[quadrupol]    -10008.131051

 energy correction for charged system         0.000000 eV
 dipol+quadrupol energy correction           -0.000036 eV
 added-field ion interaction         -1.316544 eV  (added to PSCEN)


 Free energy of the ion-electron system (eV)
  ---------------------------------------------------
  alpha Z        PSCENC =      1253.43578287
  Ewald energy   TEWEN  =    219083.31569302
  -Hartree energ DENC   =   -279322.61156418
  -exchange      EXHF   =         0.00000000
  -V(xc)+E(xc)   XCENC  =      1559.32423806
  PAW double counting   =     65004.23933887   -68475.70242463
  entropy T*S    EENTRO =         0.00293962
  eigenvalues    EBANDS =      -734.67403043
  atomic energy  EATOM  =     61720.56526127
  Solvation  Ediel_sol  =         0.00000000
  ---------------------------------------------------
  free energy    TOTEN  =        87.89523447 eV

  energy without entropy =       87.89229486  energy(sigma->0) =       87.89425460


--------------------------------------------------------------------------------------------------------




--------------------------------------- Iteration      1(   3)  ---------------------------------------


     EDDAV:  cpu time   25.3731: real time   25.7683
       DOS:  cpu time    0.0080: real time    0.0080
    --------------------------------------------
      LOOP:  cpu time   25.3811: real time   25.7763

 eigenvalue-minimisations  :  8523
 total energy-change (2. order) :-0.4367791E+03  (-0.3748582E+03)
 number of electron     610.0000136 magnetization      94.0000000
 augmentation part      610.0000136 magnetization      94.0000000

 DIPCOR: dipole corrections for dipol
 direction  3 min pos   225,
 dipolmoment           0.000000      0.000000      0.026935 electrons x Angstroem
 Tr[quadrupol]    -10008.131051

 energy correction for charged system         0.000000 eV
 dipol+quadrupol energy correction           -0.000036 eV
 added-field ion interaction         -1.316544 eV  (added to PSCEN)


 Free energy of the ion-electron system (eV)
  ---------------------------------------------------
  alpha Z        PSCENC =      1253.43578287
  Ewald energy   TEWEN  =    219083.31569302
  -Hartree energ DENC   =   -279322.61156418
  -exchange      EXHF   =         0.00000000
  -V(xc)+E(xc)   XCENC  =      1559.32423806
  PAW double counting   =     65004.23933887   -68475.70242463
  entropy T*S    EENTRO =         0.00623194
  eigenvalues    EBANDS =     -1171.45643209
  atomic energy  EATOM  =     61720.56526127
  Solvation  Ediel_sol  =         0.00000000
  ---------------------------------------------------
  free energy    TOTEN  =      -348.88387486 eV

  energy without entropy =     -348.89010680  energy(sigma->0) =     -348.88595217


--------------------------------------------------------------------------------------------------------




--------------------------------------- Iteration      1(   4)  ---------------------------------------


     EDDAV:  cpu time   26.0860: real time   26.4779
       DOS:  cpu time    0.0080: real time    0.0080
    --------------------------------------------
      LOOP:  cpu time   26.0940: real time   26.4859

 eigenvalue-minimisations  :  8820
 total energy-change (2. order) :-0.1836784E+02  (-0.1801957E+02)
 number of electron     610.0000136 magnetization      94.0000000
 augmentation part      610.0000136 magnetization      94.0000000

 DIPCOR: dipole corrections for dipol
 direction  3 min pos   225,
 dipolmoment           0.000000      0.000000      0.026935 electrons x Angstroem
 Tr[quadrupol]    -10008.131051

 energy correction for charged system         0.000000 eV
 dipol+quadrupol energy correction           -0.000036 eV
 added-field ion interaction         -1.316544 eV  (added to PSCEN)


 Free energy of the ion-electron system (eV)
  ---------------------------------------------------
  alpha Z        PSCENC =      1253.43578287
  Ewald energy   TEWEN  =    219083.31569302
  -Hartree energ DENC   =   -279322.61156418
  -exchange      EXHF   =         0.00000000
  -V(xc)+E(xc)   XCENC  =      1559.32423806
  PAW double counting   =     65004.23933887   -68475.70242463
  entropy T*S    EENTRO =         0.00683921
  eigenvalues    EBANDS =     -1189.82487851
  atomic energy  EATOM  =     61720.56526127
  Solvation  Ediel_sol  =         0.00000000
  ---------------------------------------------------
  free energy    TOTEN  =      -367.25171401 eV

  energy without entropy =     -367.25855322  energy(sigma->0) =     -367.25399374


--------------------------------------------------------------------------------------------------------




--------------------------------------- Iteration      1(   5)  ---------------------------------------


     EDDAV:  cpu time   28.6266: real time   29.0437
       DOS:  cpu time    0.0080: real time    0.0081
    CHARGE:  cpu time    1.0108: real time    1.0327
    MIXING:  cpu time    0.0040: real time    0.0048
    --------------------------------------------
      LOOP:  cpu time   29.6495: real time   30.0893

 eigenvalue-minimisations  :  9828
 total energy-change (2. order) :-0.3473823E+00  (-0.3472194E+00)
 number of electron     610.0000134 magnetization      91.5877631
 augmentation part      366.3308784 magnetization      75.5488106

 DIPCOR: dipole corrections for dipol
 direction  3 min pos   225,
 dipolmoment           0.000000      0.000000      0.026935 electrons x Angstroem
 Tr[quadrupol]    -10008.131051

 energy correction for charged system         0.000000 eV
 dipol+quadrupol energy correction           -0.000036 eV
 added-field ion interaction         -1.316544 eV  (added to PSCEN)


 Broyden mixing:
  rms(total) = 0.31691E+01    rms(broyden)= 0.31688E+01
  rms(prec ) = 0.32075E+01
  weight for this iteration     100.00

 Free energy of the ion-electron system (eV)
  ---------------------------------------------------
  alpha Z        PSCENC =      1253.43578287
  Ewald energy   TEWEN  =    219083.31569302
  -Hartree energ DENC   =   -279322.61156418
  -exchange      EXHF   =         0.00000000
  -V(xc)+E(xc)   XCENC  =      1559.32423806
  PAW double counting   =     65004.23933887   -68475.70242463
  entropy T*S    EENTRO =         0.00695939
  eigenvalues    EBANDS =     -1190.17238095
  atomic energy  EATOM  =     61720.56526127
  Solvation  Ediel_sol  =         0.00000000
  ---------------------------------------------------
  free energy    TOTEN  =      -367.59909627 eV

  energy without entropy =     -367.60605566  energy(sigma->0) =     -367.60141607


--------------------------------------------------------------------------------------------------------




--------------------------------------- Iteration      1(   6)  ---------------------------------------


    POTLOK:  cpu time    0.2460: real time    0.2463
    SETDIJ:  cpu time    0.0190: real time    0.0189
    EDDIAG:  cpu time    4.2424: real time    4.3444
  RMM-DIIS:  cpu time   15.0667: real time   15.3667
    ORTHCH:  cpu time    0.6259: real time    0.6331
       DOS:  cpu time    0.0070: real time    0.0073
    CHARGE:  cpu time    0.9988: real time    1.0049
    MIXING:  cpu time    0.0050: real time    0.0050
    --------------------------------------------
      LOOP:  cpu time   21.2108: real time   21.6265

 eigenvalue-minimisations  :  8339
 total energy-change (2. order) :-0.2203457E+02  (-0.2405433E+01)
 number of electron     610.0000141 magnetization      90.8785673
 augmentation part      363.4737595 magnetization      78.5814935

 DIPCOR: dipole corrections for dipol
 direction  3 min pos   236,
 dipolmoment           0.000000      0.000000     -0.279860 electrons x Angstroem
 Tr[quadrupol]    -10009.711134

 energy correction for charged system         0.000000 eV
 dipol+quadrupol energy correction           -0.003841 eV
 added-field ion interaction          1.482217 eV  (added to PSCEN)


 Broyden mixing:
  rms(total) = 0.80908E+01    rms(broyden)= 0.80907E+01
  rms(prec ) = 0.92427E+01
  weight for this iteration     100.00

 eigenvalues of (default mixing * dielectric matrix)
  average eigenvalue GAMMA=   0.3039
  0.3039

 Free energy of the ion-electron system (eV)
  ---------------------------------------------------
  alpha Z        PSCENC =      1256.23073859
  Ewald energy   TEWEN  =    219083.31569302
  -Hartree energ DENC   =   -279428.54361994
  -exchange      EXHF   =         0.00000000
  -V(xc)+E(xc)   XCENC  =      1572.40694999
  PAW double counting   =     65356.40384852   -68848.91013538
  entropy T*S    EENTRO =         0.07102433
  eigenvalues    EBANDS =     -1101.17343014
  atomic energy  EATOM  =     61720.56526127
  Solvation  Ediel_sol  =         0.00000000
  ---------------------------------------------------
  free energy    TOTEN  =      -389.63366974 eV

  energy without entropy =     -389.70469407  energy(sigma->0) =     -389.65734452


--------------------------------------------------------------------------------------------------------




--------------------------------------- Iteration      1(   7)  ---------------------------------------


    POTLOK:  cpu time    0.2450: real time    0.2467
    SETDIJ:  cpu time    0.0190: real time    0.0193
    EDDIAG:  cpu time    3.7054: real time    3.7635
  RMM-DIIS:  cpu time   15.4966: real time   15.7858
    ORTHCH:  cpu time    0.6299: real time    0.6319
       DOS:  cpu time    0.0080: real time    0.0079
    CHARGE:  cpu time    0.9938: real time    1.0162
    MIXING:  cpu time    0.0040: real time    0.0045
    --------------------------------------------
      LOOP:  cpu time   21.1018: real time   21.4759

 eigenvalue-minimisations  :  8335
 total energy-change (2. order) :-0.1730234E+02  (-0.4122428E+01)
 number of electron     610.0000120 magnetization      90.2520570
 augmentation part      361.8598889 magnetization      77.1153285

 DIPCOR: dipole corrections for dipol
 direction  3 min pos   239,
 dipolmoment           0.000000      0.000000      1.046025 electrons x Angstroem
 Tr[quadrupol]    -10007.616595

 energy correction for charged system         0.000000 eV
 dipol+quadrupol energy correction           -0.053663 eV
 added-field ion interaction          6.892913 eV  (added to PSCEN)


 Broyden mixing:
  rms(total) = 0.95126E+01    rms(broyden)= 0.95124E+01
  rms(prec ) = 0.12818E+02
  weight for this iteration     100.00

 eigenvalues of (default mixing * dielectric matrix)
  average eigenvalue GAMMA=   0.2406
  0.3938  0.0873

 Free energy of the ion-electron system (eV)
  ---------------------------------------------------
  alpha Z        PSCENC =      1261.59161286
  Ewald energy   TEWEN  =    219083.31569302
  -Hartree energ DENC   =   -279333.90283830
  -exchange      EXHF   =         0.00000000
  -V(xc)+E(xc)   XCENC  =      1569.15539218
  PAW double counting   =     65383.39513833   -68872.06955282
  entropy T*S    EENTRO =        -0.01980967
  eigenvalues    EBANDS =     -1218.96691069
  atomic energy  EATOM  =     61720.56526127
  Solvation  Ediel_sol  =         0.00000000
  ---------------------------------------------------
  free energy    TOTEN  =      -406.93601382 eV

  energy without entropy =     -406.91620415  energy(sigma->0) =     -406.92941060


--------------------------------------------------------------------------------------------------------




--------------------------------------- Iteration      1(   8)  ---------------------------------------


    POTLOK:  cpu time    0.2440: real time    0.2448
    SETDIJ:  cpu time    0.0190: real time    0.0189
    EDDIAG:  cpu time    3.7044: real time    3.7604
  RMM-DIIS:  cpu time   14.9487: real time   15.1530
    ORTHCH:  cpu time    0.6429: real time    0.6732
       DOS:  cpu time    0.0080: real time    0.0077
    CHARGE:  cpu time    0.9809: real time    0.9815
    MIXING:  cpu time    0.0100: real time    0.0091
    --------------------------------------------
      LOOP:  cpu time   20.5579: real time   20.8487

 eigenvalue-minimisations  :  8340
 total energy-change (2. order) : 0.1749197E+02  (-0.1596980E+01)
 number of electron     610.0000141 magnetization      89.4682149
 augmentation part      365.9437397 magnetization      73.3502724

 DIPCOR: dipole corrections for dipol
 direction  3 min pos   240,
 dipolmoment           0.000000      0.000000     -0.695928 electrons x Angstroem
 Tr[quadrupol]    -10008.068418

 energy correction for charged system         0.000000 eV
 dipol+quadrupol energy correction           -0.023753 eV
 added-field ion interaction         -7.343149 eV  (added to PSCEN)


 Broyden mixing:
  rms(total) = 0.64938E+01    rms(broyden)= 0.64936E+01
  rms(prec ) = 0.82510E+01
  weight for this iteration     100.00

 eigenvalues of (default mixing * dielectric matrix)
  average eigenvalue GAMMA=   0.2159
  0.4557  0.1395  0.0526

 Free energy of the ion-electron system (eV)
  ---------------------------------------------------
  alpha Z        PSCENC =      1247.38546027
  Ewald energy   TEWEN  =    219083.31569302
  -Hartree energ DENC   =   -279332.56517226
  -exchange      EXHF   =         0.00000000
  -V(xc)+E(xc)   XCENC  =      1566.22314128
  PAW double counting   =     65394.88318247   -68878.20423456
  entropy T*S    EENTRO =         0.07223060
  eigenvalues    EBANDS =     -1191.11960456
  atomic energy  EATOM  =     61720.56526127
  Solvation  Ediel_sol  =         0.00000000
  ---------------------------------------------------
  free energy    TOTEN  =      -389.44404247 eV

  energy without entropy =     -389.51627307  energy(sigma->0) =     -389.46811934


--------------------------------------------------------------------------------------------------------




--------------------------------------- Iteration      1(   9)  ---------------------------------------


    POTLOK:  cpu time    0.2440: real time    0.2448
    SETDIJ:  cpu time    0.0190: real time    0.0189
    EDDIAG:  cpu time    3.6904: real time    3.7430
  RMM-DIIS:  cpu time   15.1467: real time   15.2219
    ORTHCH:  cpu time    0.6279: real time    0.6308
       DOS:  cpu time    0.0080: real time    0.0075
    CHARGE:  cpu time    0.9799: real time    0.9832
    MIXING:  cpu time    0.0050: real time    0.0050
    --------------------------------------------
      LOOP:  cpu time   20.7208: real time   20.8551

 eigenvalue-minimisations  :  8346
 total energy-change (2. order) : 0.2046793E+02  (-0.9273471E+00)
 number of electron     610.0000140 magnetization      88.8509130
 augmentation part      366.4435569 magnetization      71.4280793

 DIPCOR: dipole corrections for dipol
 direction  3 min pos   236,
 dipolmoment           0.000000      0.000000      0.130737 electrons x Angstroem
 Tr[quadrupol]    -10009.229488

 energy correction for charged system         0.000000 eV
 dipol+quadrupol energy correction           -0.000838 eV
 added-field ion interaction         -0.692421 eV  (added to PSCEN)


 Broyden mixing:
  rms(total) = 0.37566E+01    rms(broyden)= 0.37564E+01
  rms(prec ) = 0.41825E+01
  weight for this iteration     100.00

 eigenvalues of (default mixing * dielectric matrix)
  average eigenvalue GAMMA=   0.2156
  0.5244  0.1559  0.1232  0.0589

 Free energy of the ion-electron system (eV)
  ---------------------------------------------------
  alpha Z        PSCENC =      1254.05910296
  Ewald energy   TEWEN  =    219083.31569302
  -Hartree energ DENC   =   -279368.62645904
  -exchange      EXHF   =         0.00000000
  -V(xc)+E(xc)   XCENC  =      1565.98104964
  PAW double counting   =     65460.09451409   -68945.76241555
  entropy T*S    EENTRO =         0.03705410
  eigenvalues    EBANDS =     -1138.63991370
  atomic energy  EATOM  =     61720.56526127
  Solvation  Ediel_sol  =         0.00000000
  ---------------------------------------------------
  free energy    TOTEN  =      -368.97611321 eV

  energy without entropy =     -369.01316731  energy(sigma->0) =     -368.98846458


--------------------------------------------------------------------------------------------------------




--------------------------------------- Iteration      1(  10)  ---------------------------------------


    POTLOK:  cpu time    0.2720: real time    0.2734
    SETDIJ:  cpu time    0.0190: real time    0.0190
    EDDIAG:  cpu time    3.6584: real time    3.6704
  RMM-DIIS:  cpu time   15.0577: real time   15.1339
    ORTHCH:  cpu time    0.6289: real time    0.6319
       DOS:  cpu time    0.0070: real time    0.0078
    CHARGE:  cpu time    1.0028: real time    1.0085
    MIXING:  cpu time    0.0060: real time    0.0059
    --------------------------------------------
      LOOP:  cpu time   20.6519: real time   20.7508

 eigenvalue-minimisations  :  8365
 total energy-change (2. order) : 0.5729256E+01  (-0.7675619E+00)
 number of electron     610.0000135 magnetization      87.6818691
 augmentation part      365.4369567 magnetization      71.2492463

 DIPCOR: dipole corrections for dipol
 direction  3 min pos   237,
 dipolmoment           0.000000      0.000000     -0.159359 electrons x Angstroem
 Tr[quadrupol]    -10007.967649

 energy correction for charged system         0.000000 eV
 dipol+quadrupol energy correction           -0.001245 eV
 added-field ion interaction          0.212635 eV  (added to PSCEN)


 Broyden mixing:
  rms(total) = 0.26627E+01    rms(broyden)= 0.26625E+01
  rms(prec ) = 0.32991E+01
  weight for this iteration     100.00

 eigenvalues of (default mixing * dielectric matrix)
  average eigenvalue GAMMA=   0.2574
  0.6940  0.2761  0.1311  0.1311  0.0545

 Free energy of the ion-electron system (eV)
  ---------------------------------------------------
  alpha Z        PSCENC =      1254.96375204
  Ewald energy   TEWEN  =    219083.31569302
  -Hartree energ DENC   =   -279344.19867327
  -exchange      EXHF   =         0.00000000
  -V(xc)+E(xc)   XCENC  =      1569.08737249
  PAW double counting   =     65528.98654081   -69021.13273239
  entropy T*S    EENTRO =         0.11956759
  eigenvalues    EBANDS =     -1154.95363873
  atomic energy  EATOM  =     61720.56526127
  Solvation  Ediel_sol  =         0.00000000
  ---------------------------------------------------
  free energy    TOTEN  =      -363.24685718 eV

  energy without entropy =     -363.36642476  energy(sigma->0) =     -363.28671304


--------------------------------------------------------------------------------------------------------




--------------------------------------- Iteration      1(  11)  ---------------------------------------


    POTLOK:  cpu time    0.2430: real time    0.2457
    SETDIJ:  cpu time    0.0210: real time    0.0196
    EDDIAG:  cpu time    3.7024: real time    3.7147
  RMM-DIIS:  cpu time   15.0717: real time   15.1253
    ORTHCH:  cpu time    0.6299: real time    0.6323
       DOS:  cpu time    0.0080: real time    0.0075
    CHARGE:  cpu time    0.9988: real time    1.0003
    MIXING:  cpu time    0.0050: real time    0.0054
    --------------------------------------------
      LOOP:  cpu time   20.6799: real time   20.7508

 eigenvalue-minimisations  :  8353
 total energy-change (2. order) :-0.1471121E+01  (-0.4938328E+00)
 number of electron     610.0000139 magnetization      86.8074823
 augmentation part      364.8682856 magnetization      70.7709881

 DIPCOR: dipole corrections for dipol
 direction  3 min pos   232,
 dipolmoment           0.000000      0.000000      0.028434 electrons x Angstroem
 Tr[quadrupol]    -10009.326452

 energy correction for charged system         0.000000 eV
 dipol+quadrupol energy correction           -0.000040 eV
 added-field ion interaction         -0.601207 eV  (added to PSCEN)


 Broyden mixing:
  rms(total) = 0.35440E+01    rms(broyden)= 0.35438E+01
  rms(prec ) = 0.39109E+01
  weight for this iteration     100.00

 eigenvalues of (default mixing * dielectric matrix)
  average eigenvalue GAMMA=   0.2559
  0.7845  0.2403  0.2403  0.0552  0.1213  0.0941

 Free energy of the ion-electron system (eV)
  ---------------------------------------------------
  alpha Z        PSCENC =      1254.15111577
  Ewald energy   TEWEN  =    219083.31569302
  -Hartree energ DENC   =   -279397.85419910
  -exchange      EXHF   =         0.00000000
  -V(xc)+E(xc)   XCENC  =      1571.00565959
  PAW double counting   =     65611.19864389   -69105.21449014
  entropy T*S    EENTRO =         0.01041959
  eigenvalues    EBANDS =     -1101.89608159
  atomic energy  EATOM  =     61720.56526127
  Solvation  Ediel_sol  =         0.00000000
  ---------------------------------------------------
  free energy    TOTEN  =      -364.71797770 eV

  energy without entropy =     -364.72839729  energy(sigma->0) =     -364.72145090


--------------------------------------------------------------------------------------------------------




--------------------------------------- Iteration      1(  12)  ---------------------------------------


    POTLOK:  cpu time    0.2450: real time    0.2453
    SETDIJ:  cpu time    0.0190: real time    0.0192
    EDDIAG:  cpu time    3.8854: real time    3.9479
  RMM-DIIS:  cpu time   15.1547: real time   15.2264
    ORTHCH:  cpu time    0.6599: real time    0.6608
       DOS:  cpu time    0.0080: real time    0.0079
    CHARGE:  cpu time    0.9769: real time    0.9790
    MIXING:  cpu time    0.0060: real time    0.0051
    --------------------------------------------
      LOOP:  cpu time   20.9548: real time   21.0915

 eigenvalue-minimisations  :  8358
 total energy-change (2. order) : 0.2510851E+01  (-0.4417662E+00)
 number of electron     610.0000136 magnetization      86.1357898
 augmentation part      365.6632578 magnetization      70.0503212

 DIPCOR: dipole corrections for dipol
 direction  3 min pos   231,
 dipolmoment           0.000000      0.000000     -0.008844 electrons x Angstroem
 Tr[quadrupol]    -10009.445668

 energy correction for charged system         0.000000 eV
 dipol+quadrupol energy correction           -0.000004 eV
 added-field ion interaction          0.222037 eV  (added to PSCEN)


 Broyden mixing:
  rms(total) = 0.17667E+01    rms(broyden)= 0.17666E+01
  rms(prec ) = 0.19319E+01
  weight for this iteration     100.00

 eigenvalues of (default mixing * dielectric matrix)
  average eigenvalue GAMMA=   0.2755
  0.8202  0.3600  0.3600  0.0549  0.1296  0.1019  0.1019

 Free energy of the ion-electron system (eV)
  ---------------------------------------------------
  alpha Z        PSCENC =      1254.97439610
  Ewald energy   TEWEN  =    219083.31569302
  -Hartree energ DENC   =   -279400.20924617
  -exchange      EXHF   =         0.00000000
  -V(xc)+E(xc)   XCENC  =      1572.42470094
  PAW double counting   =     65658.43152633   -69152.37108611
  entropy T*S    EENTRO =         0.04893950
  eigenvalues    EBANDS =     -1099.38731185
  atomic energy  EATOM  =     61720.56526127
  Solvation  Ediel_sol  =         0.00000000
  ---------------------------------------------------
  free energy    TOTEN  =      -362.20712696 eV

  energy without entropy =     -362.25606646  energy(sigma->0) =     -362.22344012


--------------------------------------------------------------------------------------------------------




--------------------------------------- Iteration      1(  13)  ---------------------------------------


    POTLOK:  cpu time    0.2450: real time    0.2459
    SETDIJ:  cpu time    0.0210: real time    0.0208
    EDDIAG:  cpu time    3.7144: real time    3.7230
  RMM-DIIS:  cpu time   15.3747: real time   15.4190
    ORTHCH:  cpu time    0.6359: real time    0.6375
       DOS:  cpu time    0.0080: real time    0.0078
    CHARGE:  cpu time    1.0058: real time    1.0084
    MIXING:  cpu time    0.0070: real time    0.0054
    --------------------------------------------
      LOOP:  cpu time   21.0118: real time   21.0677

 eigenvalue-minimisations  :  8358
 total energy-change (2. order) : 0.8391564E+00  (-0.2041722E+00)
 number of electron     610.0000135 magnetization      84.0364921
 augmentation part      365.4911859 magnetization      68.2756307

 DIPCOR: dipole corrections for dipol
 direction  3 min pos   231,
 dipolmoment           0.000000      0.000000      0.043776 electrons x Angstroem
 Tr[quadrupol]    -10009.554589

 energy correction for charged system         0.000000 eV
 dipol+quadrupol energy correction           -0.000094 eV
 added-field ion interaction         -1.099057 eV  (added to PSCEN)


 Broyden mixing:
  rms(total) = 0.14688E+01    rms(broyden)= 0.14687E+01
  rms(prec ) = 0.15792E+01
  weight for this iteration     100.00

 eigenvalues of (default mixing * dielectric matrix)
  average eigenvalue GAMMA=   0.3529
  1.1928  0.5447  0.5447  0.0550  0.1467  0.1145  0.1145  0.1102

 Free energy of the ion-electron system (eV)
  ---------------------------------------------------
  alpha Z        PSCENC =      1253.65321192
  Ewald energy   TEWEN  =    219083.31569302
  -Hartree energ DENC   =   -279410.06896409
  -exchange      EXHF   =         0.00000000
  -V(xc)+E(xc)   XCENC  =      1573.19373826
  PAW double counting   =     65696.09885802   -69190.29453133
  entropy T*S    EENTRO =         0.03566370
  eigenvalues    EBANDS =     -1087.86690129
  atomic energy  EATOM  =     61720.56526127
  Solvation  Ediel_sol  =         0.00000000
  ---------------------------------------------------
  free energy    TOTEN  =      -361.36797052 eV

  energy without entropy =     -361.40363423  energy(sigma->0) =     -361.37985842


--------------------------------------------------------------------------------------------------------




--------------------------------------- Iteration      1(  14)  ---------------------------------------


    POTLOK:  cpu time    0.2480: real time    0.2504
    SETDIJ:  cpu time    0.0200: real time    0.0196
    EDDIAG:  cpu time    3.6734: real time    3.6912
  RMM-DIIS:  cpu time   15.2907: real time   15.3728
    ORTHCH:  cpu time    0.6809: real time    0.6849
       DOS:  cpu time    0.0080: real time    0.0079
    CHARGE:  cpu time    0.9998: real time    1.0018
    MIXING:  cpu time    0.0060: real time    0.0054
    --------------------------------------------
      LOOP:  cpu time   20.9268: real time   21.0341

 eigenvalue-minimisations  :  8358
 total energy-change (2. order) :-0.1646174E+01  (-0.2173910E+00)
 number of electron     610.0000135 magnetization      83.3729774
 augmentation part      365.0541472 magnetization      68.5556391

 DIPCOR: dipole corrections for dipol
 direction  3 min pos   228,
 dipolmoment           0.000000      0.000000      0.084109 electrons x Angstroem
 Tr[quadrupol]    -10009.931692

 energy correction for charged system         0.000000 eV
 dipol+quadrupol energy correction           -0.000347 eV
 added-field ion interaction         -3.111376 eV  (added to PSCEN)


 Broyden mixing:
  rms(total) = 0.18620E+01    rms(broyden)= 0.18619E+01
  rms(prec ) = 0.21003E+01
  weight for this iteration     100.00

 eigenvalues of (default mixing * dielectric matrix)
  average eigenvalue GAMMA=   0.3401
  1.2704  0.5557  0.5557  0.0550  0.1558  0.1302  0.1302  0.1039  0.1039

 Free energy of the ion-electron system (eV)
  ---------------------------------------------------
  alpha Z        PSCENC =      1251.64063950
  Ewald energy   TEWEN  =    219083.31569302
  -Hartree energ DENC   =   -279437.76673437
  -exchange      EXHF   =         0.00000000
  -V(xc)+E(xc)   XCENC  =      1574.13641274
  PAW double counting   =     65803.95483180   -69298.48322520
  entropy T*S    EENTRO =         0.07731369
  eigenvalues    EBANDS =     -1060.45433685
  atomic energy  EATOM  =     61720.56526127
  Solvation  Ediel_sol  =         0.00000000
  ---------------------------------------------------
  free energy    TOTEN  =      -363.01414440 eV

  energy without entropy =     -363.09145809  energy(sigma->0) =     -363.03991563


--------------------------------------------------------------------------------------------------------




--------------------------------------- Iteration      1(  15)  ---------------------------------------


    POTLOK:  cpu time    0.2460: real time    0.2471
    SETDIJ:  cpu time    0.0200: real time    0.0200
    EDDIAG:  cpu time    3.7054: real time    3.7220
  RMM-DIIS:  cpu time   15.3217: real time   15.3796
    ORTHCH:  cpu time    0.6349: real time    0.6352
       DOS:  cpu time    0.0070: real time    0.0076
    CHARGE:  cpu time    1.0528: real time    1.0544
    MIXING:  cpu time    0.0060: real time    0.0061
    --------------------------------------------
      LOOP:  cpu time   20.9938: real time   21.0719

 eigenvalue-minimisations  :  8356
 total energy-change (2. order) : 0.8683885E+00  (-0.1067572E+00)
 number of electron     610.0000133 magnetization      82.8520816
 augmentation part      364.8036228 magnetization      68.5212334

 DIPCOR: dipole corrections for dipol
 direction  3 min pos   242,
 dipolmoment           0.000000      0.000000      0.020508 electrons x Angstroem
 Tr[quadrupol]    -10010.224097

 energy correction for charged system         0.000000 eV
 dipol+quadrupol energy correction           -0.000021 eV
 added-field ion interaction          0.378904 eV  (added to PSCEN)


 Broyden mixing:
  rms(total) = 0.97063E+00    rms(broyden)= 0.97056E+00
  rms(prec ) = 0.11372E+01
  weight for this iteration     100.00

 eigenvalues of (default mixing * dielectric matrix)
  average eigenvalue GAMMA=   0.3522
  1.1671  0.6781  0.6781  0.3149  0.0550  0.1678  0.1132  0.1132  0.1174  0.1174

 Free energy of the ion-electron system (eV)
  ---------------------------------------------------
  alpha Z        PSCENC =      1255.13124579
  Ewald energy   TEWEN  =    219083.31569302
  -Hartree energ DENC   =   -279451.10140060
  -exchange      EXHF   =         0.00000000
  -V(xc)+E(xc)   XCENC  =      1574.70294022
  PAW double counting   =     65835.01750919   -69330.15533694
  entropy T*S    EENTRO =         0.07694797
  eigenvalues    EBANDS =     -1049.69861580
  atomic energy  EATOM  =     61720.56526127
  Solvation  Ediel_sol  =         0.00000000
  ---------------------------------------------------
  free energy    TOTEN  =      -362.14575589 eV

  energy without entropy =     -362.22270386  energy(sigma->0) =     -362.17140521


--------------------------------------------------------------------------------------------------------




--------------------------------------- Iteration      1(  16)  ---------------------------------------


    POTLOK:  cpu time    0.2450: real time    0.2466
    SETDIJ:  cpu time    0.0210: real time    0.0194
    EDDIAG:  cpu time    3.7534: real time    3.7644
  RMM-DIIS:  cpu time   15.1337: real time   15.1827
    ORTHCH:  cpu time    0.6359: real time    0.6370
       DOS:  cpu time    0.0070: real time    0.0074
    CHARGE:  cpu time    1.0068: real time    1.0087
    MIXING:  cpu time    0.0070: real time    0.0057
    --------------------------------------------
      LOOP:  cpu time   20.8098: real time   20.8720

 eigenvalue-minimisations  :  8348
 total energy-change (2. order) :-0.1239632E+01  (-0.7283021E-01)
 number of electron     610.0000133 magnetization      81.8256608
 augmentation part      364.6477922 magnetization      67.8964728

 DIPCOR: dipole corrections for dipol
 direction  3 min pos   249,
 dipolmoment           0.000000      0.000000      0.003741 electrons x Angstroem
 Tr[quadrupol]    -10010.378996

 energy correction for charged system         0.000000 eV
 dipol+quadrupol energy correction           -0.000001 eV
 added-field ion interaction          0.172862 eV  (added to PSCEN)


 Broyden mixing:
  rms(total) = 0.12705E+01    rms(broyden)= 0.12705E+01
  rms(prec ) = 0.14500E+01
  weight for this iteration     100.00

 eigenvalues of (default mixing * dielectric matrix)
  average eigenvalue GAMMA=   0.3991
  1.2465  1.2465  0.6912  0.3872  0.1850  0.0550  0.1319  0.1319  0.1082  0.1082
  0.0991

 Free energy of the ion-electron system (eV)
  ---------------------------------------------------
  alpha Z        PSCENC =      1254.92522403
  Ewald energy   TEWEN  =    219083.31569302
  -Hartree energ DENC   =   -279456.13847026
  -exchange      EXHF   =         0.00000000
  -V(xc)+E(xc)   XCENC  =      1574.11926567
  PAW double counting   =     65843.40314809   -69337.92568140
  entropy T*S    EENTRO =         0.06259581
  eigenvalues    EBANDS =     -1045.71242420
  atomic energy  EATOM  =     61720.56526127
  Solvation  Ediel_sol  =         0.00000000
  ---------------------------------------------------
  free energy    TOTEN  =      -363.38538797 eV

  energy without entropy =     -363.44798378  energy(sigma->0) =     -363.40625324


--------------------------------------------------------------------------------------------------------




--------------------------------------- Iteration      1(  17)  ---------------------------------------


    POTLOK:  cpu time    0.2460: real time    0.2476
    SETDIJ:  cpu time    0.0200: real time    0.0196
    EDDIAG:  cpu time    3.8004: real time    3.8103
  RMM-DIIS:  cpu time   15.0977: real time   15.1605
    ORTHCH:  cpu time    0.6639: real time    0.6680
       DOS:  cpu time    0.0070: real time    0.0077
    CHARGE:  cpu time    0.9829: real time    0.9835
    MIXING:  cpu time    0.0060: real time    0.0060
    --------------------------------------------
      LOOP:  cpu time   20.8238: real time   20.9032

 eigenvalue-minimisations  :  8323
 total energy-change (2. order) :-0.1581240E+01  (-0.9168664E-01)
 number of electron     610.0000133 magnetization      81.2435182
 augmentation part      364.8555386 magnetization      67.9612393

 DIPCOR: dipole corrections for dipol
 direction  3 min pos   250,
 dipolmoment           0.000000      0.000000      0.005839 electrons x Angstroem
 Tr[quadrupol]    -10010.371753

 energy correction for charged system         0.000000 eV
 dipol+quadrupol energy correction           -0.000002 eV
 added-field ion interaction          0.292946 eV  (added to PSCEN)


 Broyden mixing:
  rms(total) = 0.11716E+01    rms(broyden)= 0.11715E+01
  rms(prec ) = 0.13184E+01
  weight for this iteration     100.00

 eigenvalues of (default mixing * dielectric matrix)
  average eigenvalue GAMMA=   0.4142
  1.4111  1.4111  0.6758  0.3530  0.3530  0.0550  0.1472  0.1386  0.1126  0.1126
  0.1001  0.1001

 Free energy of the ion-electron system (eV)
  ---------------------------------------------------
  alpha Z        PSCENC =      1255.04530737
  Ewald energy   TEWEN  =    219083.31569302
  -Hartree energ DENC   =   -279452.55958929
  -exchange      EXHF   =         0.00000000
  -V(xc)+E(xc)   XCENC  =      1572.96961017
  PAW double counting   =     65849.28693660   -69341.37351500
  entropy T*S    EENTRO =         0.05660366
  eigenvalues    EBANDS =     -1052.27293596
  atomic energy  EATOM  =     61720.56526127
  Solvation  Ediel_sol  =         0.00000000
  ---------------------------------------------------
  free energy    TOTEN  =      -364.96662815 eV

  energy without entropy =     -365.02323181  energy(sigma->0) =     -364.98549604


--------------------------------------------------------------------------------------------------------




--------------------------------------- Iteration      1(  18)  ---------------------------------------


    POTLOK:  cpu time    0.2500: real time    0.2515
    SETDIJ:  cpu time    0.0240: real time    0.0227
    EDDIAG:  cpu time    3.7454: real time    3.7530
  RMM-DIIS:  cpu time   15.0277: real time   15.0771
    ORTHCH:  cpu time    0.6289: real time    0.6337
       DOS:  cpu time    0.0080: real time    0.0076
    CHARGE:  cpu time    1.0218: real time    1.0274
    MIXING:  cpu time    0.0060: real time    0.0063
    --------------------------------------------
      LOOP:  cpu time   20.7119: real time   20.7794

 eigenvalue-minimisations  :  8342
 total energy-change (2. order) :-0.7439609E+00  (-0.6297688E-01)
 number of electron     610.0000134 magnetization      80.1584328
 augmentation part      364.8673065 magnetization      67.2470640

 DIPCOR: dipole corrections for dipol
 direction  3 min pos   239,
 dipolmoment           0.000000      0.000000      0.035539 electrons x Angstroem
 Tr[quadrupol]    -10010.434883

 energy correction for charged system         0.000000 eV
 dipol+quadrupol energy correction           -0.000062 eV
 added-field ion interaction          0.234186 eV  (added to PSCEN)


 Broyden mixing:
  rms(total) = 0.98539E+00    rms(broyden)= 0.98533E+00
  rms(prec ) = 0.11214E+01
  weight for this iteration     100.00

 eigenvalues of (default mixing * dielectric matrix)
  average eigenvalue GAMMA=   0.4614
  2.0739  0.9666  0.9666  0.6342  0.4515  0.0550  0.1599  0.1490  0.1170  0.1170
  0.1079  0.1079  0.0912

 Free energy of the ion-electron system (eV)
  ---------------------------------------------------
  alpha Z        PSCENC =      1254.98648673
  Ewald energy   TEWEN  =    219083.31569302
  -Hartree energ DENC   =   -279455.28888033
  -exchange      EXHF   =         0.00000000
  -V(xc)+E(xc)   XCENC  =      1572.50398796
  PAW double counting   =     65855.28031422   -69346.71913061
  entropy T*S    EENTRO =         0.05652386
  eigenvalues    EBANDS =     -1050.41084516
  atomic energy  EATOM  =     61720.56526127
  Solvation  Ediel_sol  =         0.00000000
  ---------------------------------------------------
  free energy    TOTEN  =      -365.71058905 eV

  energy without entropy =     -365.76711291  energy(sigma->0) =     -365.72943033


[...]
   -.475E+02 -.602E+02 0.981E+03   0.477E+02 0.602E+02 -.981E+03   -.582E-01 -.334E-01 -.328E+00   0.216E-02 0.490E-02 0.690E-01
   0.476E+02 0.552E+02 -.885E+03   -.476E+02 -.552E+02 0.884E+03   -.491E-02 -.430E-01 0.264E+00   -.346E-01 0.354E-01 0.300E-01
   0.649E+01 0.232E+02 0.282E+04   -.657E+01 -.231E+02 -.282E+04   0.824E-02 0.232E-01 -.145E+01   0.769E-02 0.194E-02 0.360E-01
   0.205E+02 -.134E+02 -.290E+04   -.206E+02 0.134E+02 0.290E+04   0.904E-01 -.104E-01 0.105E+01   0.135E-01 0.346E-01 -.245E-01
   -.710E+01 0.414E+02 -.927E+03   0.717E+01 -.413E+02 0.927E+03   -.211E-01 -.832E-01 0.173E+00   -.421E-01 0.137E-02 0.340E-01
   -.386E+02 0.599E+02 -.896E+03   0.385E+02 -.599E+02 0.895E+03   0.723E-01 -.190E-01 0.149E+00   0.111E-01 -.121E-01 0.120E-01
   -.434E+01 0.643E+02 0.291E+04   0.441E+01 -.644E+02 -.291E+04   0.880E-01 0.117E-01 -.129E+01   -.550E-02 -.337E-02 0.236E-01
   -.450E+01 0.534E+02 -.291E+04   0.452E+01 -.535E+02 0.291E+04   0.182E-01 0.209E-01 0.106E+01   -.273E-01 0.875E-02 -.132E-01
   0.478E+01 0.913E+02 -.965E+03   -.486E+01 -.914E+02 0.965E+03   0.305E-01 0.642E-01 0.410E+00   0.422E-01 -.960E-02 0.271E-01
   -.267E+02 0.333E+02 0.292E+04   0.267E+02 -.333E+02 -.292E+04   -.202E+00 -.286E-01 -.122E+01   -.616E-03 0.132E-02 0.329E-01
   -.546E+02 0.416E+02 -.288E+04   0.546E+02 -.418E+02 0.288E+04   -.708E-01 0.134E+00 0.101E+01   0.266E-01 0.165E-01 -.301E-01
   0.406E+02 0.848E+02 -.912E+03   -.405E+02 -.847E+02 0.912E+03   -.808E-01 -.876E-01 0.176E+00   -.126E-01 -.330E-02 0.370E-01
   0.205E+02 0.512E+02 0.291E+04   -.205E+02 -.513E+02 -.291E+04   0.202E+00 0.293E-01 -.111E+01   0.112E-01 0.344E-02 0.412E-01
   0.583E+02 0.467E+02 -.290E+04   -.584E+02 -.469E+02 0.290E+04   0.679E-01 0.117E+00 0.104E+01   0.262E-01 0.351E-01 -.440E-01
   -.267E+02 0.100E+03 0.973E+03   0.269E+02 -.101E+03 -.973E+03   -.121E+00 0.145E+00 -.592E+00   0.150E-01 0.166E-02 0.869E-01
   0.107E+02 0.782E+02 0.291E+04   -.108E+02 -.783E+02 -.291E+04   -.885E-01 0.132E-01 -.126E+01   -.525E-02 -.181E-02 0.312E-01
   0.638E+00 0.595E+02 -.292E+04   -.572E+00 -.596E+02 0.292E+04   -.424E-01 0.569E-01 0.114E+01   -.278E-01 0.244E-01 -.361E-01
   0.634E+01 0.117E+03 0.104E+04   -.632E+01 -.117E+03 -.104E+04   -.622E-02 0.204E+00 -.388E+00   -.165E-01 0.623E-02 0.621E-01
   -.159E+02 -.315E+02 0.292E+04   0.159E+02 0.316E+02 -.292E+04   0.264E-01 0.582E-03 -.150E+01   -.589E-02 -.645E-02 0.260E-01
   -.120E+02 -.375E+01 -.293E+04   0.120E+02 0.380E+01 0.293E+04   0.352E-01 -.217E-01 0.149E+01   -.387E-01 -.218E-01 -.963E-02
   -.319E+02 -.352E+02 0.291E+04   0.321E+02 0.353E+02 -.291E+04   -.196E+00 -.379E-01 -.116E+01   0.352E-02 0.551E-02 0.217E-01
   -.379E+02 0.524E+01 -.292E+04   0.381E+02 -.509E+01 0.292E+04   -.179E+00 -.124E+00 0.134E+01   0.388E-02 -.804E-02 -.132E-02
   -.277E+02 -.163E+02 0.101E+04   0.277E+02 0.163E+02 -.101E+04   0.238E-01 -.367E-01 -.299E+00   -.862E-02 -.791E-02 0.574E-01
   0.625E+01 0.129E+02 0.102E+04   -.611E+01 -.129E+02 -.102E+04   -.113E+00 -.478E-02 -.337E+00   0.178E-01 -.123E-01 0.658E-01
   0.347E+02 0.296E+01 0.293E+04   -.348E+02 -.294E+01 -.293E+04   0.173E+00 -.380E-01 -.108E+01   -.567E-02 -.191E-03 0.352E-01
   0.399E+02 0.121E+02 -.294E+04   -.401E+02 -.120E+02 0.294E+04   0.169E+00 -.408E-01 0.133E+01   -.696E-02 -.264E-01 -.262E-01
   0.235E+02 0.525E+02 0.101E+04   -.236E+02 -.523E+02 -.101E+04   0.521E-01 -.153E+00 -.291E+00   0.142E-01 -.145E-01 0.878E-01
   -.168E+01 0.278E+02 0.100E+04   0.171E+01 -.278E+02 -.100E+04   -.121E-01 0.645E-02 -.259E+00   -.232E-01 -.110E-01 0.813E-01
   -.667E+02 -.766E+02 0.809E+03   0.669E+02 0.768E+02 -.809E+03   -.218E+00 -.121E+00 -.303E+00   -.936E-02 0.407E-02 0.466E-01
   0.260E+02 -.899E+02 0.808E+03   -.263E+02 0.902E+02 -.808E+03   0.222E+00 -.310E+00 -.348E+00   0.161E-02 0.103E-01 0.353E-01
   -.517E+02 0.129E+02 -.742E+03   0.520E+02 -.128E+02 0.742E+03   -.261E+00 -.286E-01 0.108E+00   0.147E-01 0.737E-02 -.199E-02
   0.428E+02 0.430E+02 -.744E+03   -.431E+02 -.431E+02 0.744E+03   0.258E+00 0.393E-01 0.258E+00   0.125E-01 0.354E-01 0.604E-02
   -.293E+02 0.127E+02 0.230E+04   0.293E+02 -.126E+02 -.229E+04   0.847E-02 -.231E-01 -.259E+01   0.411E-02 0.849E-03 0.308E-01
   -.327E+01 -.268E+02 -.233E+04   0.327E+01 0.269E+02 0.232E+04   -.142E-01 -.135E+00 0.314E+01   0.870E-02 0.195E-01 -.203E-01
   -.249E+02 -.223E+02 0.780E+03   0.252E+02 0.222E+02 -.780E+03   -.281E+00 0.944E-01 -.321E+00   0.174E-02 0.147E-01 0.540E-01
   0.114E+02 0.324E+02 0.230E+04   -.113E+02 -.325E+02 -.229E+04   -.583E-01 0.646E-01 -.288E+01   -.339E-02 -.485E-02 0.176E-01
   0.252E+01 0.983E+00 -.235E+04   -.255E+01 -.105E+01 0.234E+04   0.386E-01 0.642E-01 0.277E+01   -.646E-02 0.404E-02 0.288E-02
   0.358E+02 -.216E+02 0.795E+03   -.358E+02 0.215E+02 -.795E+03   0.165E-01 0.940E-01 -.250E+00   -.116E-01 0.826E-02 0.401E-01
   0.329E+02 -.597E+02 0.798E+03   -.332E+02 0.598E+02 -.798E+03   0.311E+00 -.167E-01 -.241E+00   0.851E-02 -.517E-02 0.376E-01
   -.126E+02 0.681E+02 0.810E+03   0.126E+02 -.680E+02 -.810E+03   -.146E-01 -.751E-01 -.351E+00   0.907E-02 -.506E-02 0.494E-01
   0.267E+02 0.114E+03 0.805E+03   -.269E+02 -.115E+03 -.805E+03   0.164E+00 0.278E+00 -.401E+00   -.804E-02 0.831E-02 0.676E-01
   0.104E+02 -.120E+02 0.235E+04   -.104E+02 0.120E+02 -.234E+04   -.998E-02 0.954E-01 -.264E+01   0.652E-02 0.874E-02 0.213E-01
   0.896E+01 0.143E+02 -.236E+04   -.895E+01 -.141E+02 0.235E+04   -.313E-01 -.115E+00 0.273E+01   0.342E-01 -.109E-01 -.860E-02
 -----------------------------------------------------------------------------------------------
   0.859E-01 0.117E+00 0.782E+00   0.639E-13 0.108E-12 0.318E-11   -.659E-01 -.930E-01 -.227E+01   -.210E-01 -.229E-01 0.149E+01
 
 
 POSITION                                       TOTAL-FORCE (eV/Angst)
 -----------------------------------------------------------------------------------
      0.00178      0.00956      6.09616         0.002467     -0.004585     -0.001179
      2.50692      0.01501      6.07844        -0.003378     -0.010465     -0.001731
     -0.00144      8.67849      6.11717         0.008099      0.003764     -0.000871
      2.49802      8.67796      6.11249        -0.000148      0.004170     -0.003721
     -1.25154      2.16777      6.11491        -0.001405      0.000137      0.001070
      1.25561      2.19243      6.12568        -0.001134     -0.013007      0.008778
     -0.00285      1.44433      2.02731        -0.091728     -0.012349      0.133889
     -0.01018      1.43848      8.12097         0.003451     -0.005734      0.012366
      3.76061      2.17771      6.10865         0.002956     -0.005138     -0.007273
      2.50178      1.44890      2.02870         0.128060     -0.076490      0.152577
      2.51046      1.44160      8.10414        -0.003028     -0.002288      0.010371
      6.26421      2.18462      6.14949         0.006594     -0.026065     -0.001181
      5.00042      1.45188      2.04906        -0.063383      0.062268      0.152277
      4.99833      1.42700      8.13074        -0.003055      0.003576     -0.005350
      7.52680      1.44774      2.04371         0.003347      0.006686      0.260067
      7.54309      1.43487      8.12271         0.007776     -0.000476     -0.000430
      6.25724      0.72120      4.08067         0.020601     -0.044886     -0.110364
      8.77725      0.71231      4.06937        -0.020119     -0.006562     -0.111946
     -2.49828      4.34794      6.07829         0.002224      0.008322     -0.002798
     -1.27467      3.61315      2.03305        -0.036119      0.138356      0.147854
     -1.24551      3.60234      8.11632         0.003218      0.012570      0.005607
     -0.00860      2.89985      4.06992         0.095719      0.007372     -0.098101
      5.02179      4.35698      6.09798         0.003001      0.006205     -0.001429
      3.76492      3.61380      2.03275        -0.059815      0.100214      0.060040
      3.75924      3.60008      8.14362         0.002883      0.009517      0.004210
     -3.75520      6.52598      6.10913         0.004271     -0.010984      0.009146
     -1.25579      6.50528      6.08383         0.001709      0.006490      0.008708
     -2.50964      5.80144      2.00868         0.158805     -0.072282      0.266476
     -2.50740      5.78686      8.09246         0.008616     -0.011843      0.015524
      1.25640      6.50919      6.11031        -0.001759     -0.005100      0.017092
     -0.00666      5.79426      2.00000        -0.142545     -0.086442      0.215853
     -0.02204      5.78853      8.09893         0.003929     -0.008216      0.019467
      3.76662      6.51474      6.09482        -0.000756      0.000235      0.006787
      2.50308      5.78909      2.00258         0.206240     -0.077760      0.215246
      2.52846      5.79224      8.11998        -0.002161     -0.001614      0.008135
      1.25945      5.05378      4.04325         0.008474     -0.055484     -0.132470
      5.01445      5.79798      2.01253        -0.206934     -0.040472      0.245112
      5.01524      5.79047      8.10339        -0.003706     -0.006948      0.017178
      6.27138      5.06452      4.04277        -0.008851     -0.046667     -0.110418
     -3.76517      7.96148      2.01692         0.037256      0.073063      0.210354
     -3.76692      7.96392      8.09836         0.000849      0.005190      0.014255
     -1.24654      7.96318      2.02106        -0.064194      0.011419      0.117665
     -1.25696      7.95269      8.10352         0.004728      0.014131      0.005981
     -2.51584      7.25277      4.05488        -0.044993     -0.026724     -0.084296
      0.00963      7.22591      4.06956         0.050404      0.030747     -0.122663
      3.74757      7.96401      2.04129         0.086564     -0.013079      0.141634
      3.75944      7.95797      8.12012        -0.010799      0.010941      0.012314
      2.50222      7.23652      4.07554        -0.022524      0.007185     -0.130917
      5.01801      7.23500      4.07175         0.001419      0.002396     -0.089776
      1.20950      0.71304      4.05362         0.000691      0.021239     -0.227411
      3.78049      0.67792      4.06350        -0.053172      0.000997     -0.313491
     -0.00264      4.34001      6.11763        -0.004845     -0.002797      0.020733
      2.54540      4.36505      6.16345         0.001880      0.000554      0.011435
      1.23098      3.62224      2.02942         0.000796      0.065499      0.060332
      1.25185      3.61779      8.19843        -0.005183     -0.005268      0.003472
      2.51334      2.87806      4.07938         0.015921     -0.018037     -0.154018
      6.26024      3.63306      2.00212         0.010616     -0.032938      0.097894
      6.27080      3.61222      8.13491        -0.003276      0.000374     -0.016169
      5.02463      2.88643      4.11822         0.019083      0.035668     -0.292931
      7.52997      2.83909      4.10996        -0.022236      0.000874     -0.258889
     -1.25360      5.10876      4.01488         0.050207     -0.025894     -0.351380
      3.75975      5.11705      4.02298        -0.049491      0.028481     -0.274179
      1.25181      7.95850      2.03066        -0.037144      0.080130      0.224672
      1.26210      7.95613      8.12282         0.005027     -0.002175     -0.009192
 -----------------------------------------------------------------------------------
    total drift:                               -0.001031      0.001080     -0.000924


--------------------------------------------------------------------------------------------------------



  FREE ENERGIE OF THE ION-ELECTRON SYSTEM (eV)
  ---------------------------------------------------
  free  energy   TOTEN  =      -372.84334260 eV

  energy  without entropy=     -372.84315466  energy(sigma->0) =     -372.84327995
 
 d Force = 0.2619511E-02[ 0.108E-02, 0.416E-02]  d Energy = 0.2564094E-02 0.554E-04
 d Force = 0.1320597E+03[ 0.132E+03, 0.132E+03]  d Ewald  = 0.1320597E+03-0.436E-04


--------------------------------------------------------------------------------------------------------


    POTLOK:  cpu time    0.2670: real time    0.2670


--------------------------------------------------------------------------------------------------------


 Conjugate gradient step on ions:
 trial-energy change:   -0.002564  1 .order   -0.002620   -0.004164   -0.001075
  (g-gl).g = 0.209E-02      g.g   = 0.208E-02  gl.gl    = 0.110E-01
 g(Force)  = 0.208E-02   g(Stress)= 0.000E+00 ortho     =-0.264E-04
 gamma     =   0.18962
 trial     =   2.00671
 opt step  =   2.83062  (harmonic =   2.70549) maximal distance =0.00937354
 next E    =  -372.843560   (d E  =  -0.00278)


--------------------------------------------------------------------------------------------------------


  
 reached required accuracy - stopping structural energy minimisation
     LOOP+:  cpu time  271.5707: real time  272.2209
    4ORBIT:  cpu time    0.0000: real time    0.0000
 


 total charge     
 
# of ion       s       p       d       tot
------------------------------------------
    1        0.494   0.492   8.323   9.308
    2        0.495   0.494   8.327   9.317
    3        0.497   0.498   8.322   9.317
    4        0.492   0.492   8.317   9.301
    5        0.499   0.502   8.322   9.323
    6        0.505   0.510   8.318   9.333
    7        0.489   0.381   8.320   9.191
    8        0.490   0.381   8.317   9.189
    9        0.505   0.510   8.322   9.338
   10        0.497   0.389   8.308   9.195
   11        0.490   0.384   8.312   9.186
   12        0.502   0.507   8.328   9.337
   13        0.498   0.395   8.314   9.207
   14        0.492   0.386   8.318   9.196
   15        0.494   0.389   8.316   9.198
   16        0.494   0.390   8.317   9.201
   17        0.505   0.504   8.332   9.341
   18        0.500   0.496   8.331   9.327
   19        0.501   0.505   8.327   9.334
   20        0.502   0.392   8.313   9.207
   21        0.500   0.393   8.318   9.211
   22        0.508   0.516   8.325   9.349
   23        0.502   0.507   8.328   9.337
   24        0.503   0.393   8.312   9.208
   25        0.499   0.388   8.319   9.206
   26        0.489   0.489   8.307   9.284
   27        0.497   0.498   8.323   9.318
   28        0.492   0.383   8.315   9.190
   29        0.489   0.383   8.311   9.184
   30        0.499   0.503   8.320   9.322
   31        0.495   0.387   8.320   9.201
   32        0.497   0.395   8.318   9.210
   33        0.500   0.501   8.321   9.322
   34        0.493   0.385   8.319   9.197
   35        0.498   0.396   8.316   9.211
   36        0.506   0.507   8.326   9.339
   37        0.491   0.382   8.316   9.189
   38        0.488   0.383   8.311   9.182
   39        0.504   0.506   8.318   9.328
   40        0.484   0.371   8.314   9.170
   41        0.485   0.372   8.311   9.168
   42        0.491   0.379   8.318   9.188
   43        0.490   0.377   8.318   9.184
   44        0.501   0.501   8.325   9.327
   45        0.501   0.503   8.328   9.332
   46        0.486   0.377   8.309   9.172
   47        0.491   0.378   8.320   9.189
   48        0.497   0.497   8.319   9.313
   49        0.499   0.495   8.328   9.322
   50        0.475   0.505   6.160   7.140
   51        0.477   0.508   6.179   7.164
   52        0.471   0.505   6.178   7.154
   53        0.474   0.509   6.187   7.170
   54        0.464   0.392   6.115   6.970
   55        0.463   0.386   6.116   6.965
   56        0.474   0.507   6.205   7.186
   57        0.464   0.389   6.109   6.962
   58        0.464   0.391   6.087   6.942
   59        0.476   0.508   6.205   7.190
   60        0.474   0.506   6.176   7.156
   61        0.473   0.501   6.152   7.126
   62        0.475   0.504   6.162   7.141
   63        0.462   0.394   6.095   6.950
   64        0.466   0.398   6.093   6.957
--------------------------------------------------
tot         31.371  28.448 499.855 559.673
 


 magnetization (x)
 
# of ion       s       p       d       tot
------------------------------------------
    1       -0.010  -0.028   0.687   0.649
    2       -0.011  -0.031   0.680   0.638
    3       -0.012  -0.033   0.718   0.673
    4       -0.010  -0.033   0.713   0.670
    5       -0.009  -0.031   0.711   0.671
    6       -0.019  -0.044   0.753   0.690
    7       -0.014  -0.030   0.666   0.622
    8       -0.011  -0.026   0.657   0.620
    9       -0.014  -0.036   0.721   0.671
   10       -0.019  -0.035   0.740   0.686
   11       -0.010  -0.029   0.682   0.643
   12       -0.014  -0.039   0.709   0.657
   13       -0.018  -0.036   0.714   0.660
   14       -0.015  -0.032   0.672   0.625
   15       -0.016  -0.034   0.687   0.637
   16       -0.013  -0.031   0.678   0.633
   17       -0.018  -0.036   0.697   0.643
   18       -0.012  -0.029   0.672   0.631
   19       -0.015  -0.039   0.718   0.664
   20       -0.020  -0.033   0.727   0.674
   21       -0.018  -0.031   0.701   0.653
   22       -0.020  -0.048   0.742   0.674
   23       -0.015  -0.039   0.717   0.664
   24       -0.022  -0.033   0.741   0.686
   25       -0.019  -0.030   0.700   0.651
   26       -0.005  -0.026   0.728   0.697
   27       -0.011  -0.031   0.703   0.661
   28       -0.012  -0.030   0.693   0.651
   29       -0.011  -0.030   0.686   0.645
   30       -0.013  -0.037   0.726   0.676
   31       -0.016  -0.033   0.686   0.636
   32       -0.016  -0.035   0.697   0.646
   33       -0.012  -0.031   0.711   0.668
   34       -0.017  -0.035   0.686   0.634
   35       -0.016  -0.034   0.708   0.658
   36       -0.022  -0.045   0.725   0.657
   37       -0.013  -0.030   0.686   0.643
   38       -0.011  -0.030   0.685   0.645
   39       -0.020  -0.043   0.752   0.689
   40       -0.010  -0.024   0.677   0.643
   41       -0.008  -0.022   0.668   0.638
   42       -0.015  -0.027   0.674   0.632
   43       -0.012  -0.023   0.663   0.627
   44       -0.014  -0.034   0.711   0.663
   45       -0.014  -0.038   0.706   0.654
   46       -0.012  -0.026   0.686   0.649
   47       -0.012  -0.023   0.647   0.612
   48       -0.012  -0.036   0.718   0.669
   49       -0.012  -0.029   0.692   0.652
   50        0.005  -0.009   2.800   2.796
   51        0.003  -0.015   2.747   2.735
   52        0.004  -0.018   2.752   2.738
   53        0.001  -0.022   2.730   2.709
   54        0.016  -0.007   2.898   2.907
   55        0.012  -0.009   2.908   2.911
   56       -0.004  -0.031   2.666   2.631
   57        0.013  -0.009   2.909   2.913
   58        0.020  -0.003   2.974   2.991
   59       -0.002  -0.026   2.670   2.642
   60        0.004  -0.019   2.756   2.741
   61        0.006  -0.008   2.826   2.824
   62        0.003  -0.012   2.794   2.786
   63        0.020  -0.006   2.940   2.954
   64        0.020  -0.005   2.955   2.970
--------------------------------------------------
tot         -0.571  -1.794  76.645  74.279
 

 total amount of memory used by VASP MPI-rank0   113076. kBytes
=======================================================================

   base      :      30000. kBytes
   nonlr-proj:      13096. kBytes
   fftplans  :       6402. kBytes
   grid      :      16455. kBytes
   one-center:         93. kBytes
   wavefun   :      47030. kBytes
 
  
  
 General timing and accounting informations for this job:
 ========================================================
  
                  Total CPU time used (sec):     6147.579
                            User time (sec):     6098.153
                          System time (sec):       49.425
                         Elapsed time (sec):     6182.953
  
                   Maximum memory used (kb):      163404.
                   Average memory used (kb):           0.
  
                          Minor page faults:      1394203
                          Major page faults:            0
                 Voluntary context switches:         8241
