SQS-NiFe                                
           1
    10.026770    0.000000    0.000000
    -5.013385    8.683438    0.000000
     0.000000    0.000000   21.189180
   Ni   Fe
  49  15
Direct configuration=     1
   0.00010004  0.99936030  0.28616609
   0.24882677  0.99970802  0.28432961
   0.49888621  0.99871616  0.28572761
   0.74972175  0.99880197  0.28719429
   0.00212474  0.25033405  0.28583837
   0.25138577  0.25139495  0.28362033
   0.08288200  0.16633200  0.09567643
   0.08782533  0.17015271  0.37998020
   0.49835713  0.24774683  0.28430307
   0.33293900  0.16685800  0.09574221
   0.33370565  0.16915345  0.37915089
   0.75138857  0.25132741  0.28561569
   0.58230700  0.16720100  0.09670311
   0.58716053  0.16876703  0.38009468
   0.83403200  0.16672400  0.09645071
   0.83161435  0.16904582  0.38045924
   0.66558100  0.08305500  0.19258252
   0.91639700  0.08203100  0.19204933
   0.00115032  0.49792298  0.28366328
   0.08092200  0.41609700  0.09594766
   0.08626100  0.41918524  0.37811123
   0.16611800  0.33395200  0.19207541
   0.74833037  0.49923553  0.28394867
   0.58357300  0.41617200  0.09593346
   0.58188761  0.41865876  0.37713550
   0.99949305  0.74847705  0.28644790
   0.24837410  0.74617013  0.28502633
   0.08375800  0.66810400  0.09479725
   0.07984311  0.66222035  0.38002180
   0.49794638  0.74536216  0.28644845
   0.33297400  0.66727700  0.09438780
   0.33473816  0.66523523  0.38002541
   0.74715926  0.74597345  0.28565356
   0.58298100  0.66668200  0.09450950
   0.57947991  0.66468733  0.37982144
   0.41661000  0.58200200  0.19081663
   0.83395900  0.66770600  0.09497894
   0.83194521  0.66182530  0.38022886
   0.91708300  0.58323900  0.19079431
   0.08291700  0.91685800  0.09518613
   0.08416902  0.91633947  0.37985636
   0.33420600  0.91705400  0.09538173
   0.33595692  0.91712959  0.37923327
   0.16670900  0.83524200  0.19136546
   0.41703500  0.83214900  0.19205861
   0.83233100  0.91715000  0.09633654
   0.83103194  0.91685857  0.37994439
   0.66623900  0.83337000  0.19234085
   0.91705900  0.83319500  0.19216177
   0.16168500  0.08211500  0.19130606
   0.41607500  0.07807100  0.19177260
   0.25363966  0.50108082  0.28488056
   0.49497145  0.49481741  0.28171028
   0.33134100  0.41714300  0.09577612
   0.33571692  0.42149755  0.37259835
   0.41638400  0.33144300  0.19252196
   0.83354800  0.41839000  0.09448777
   0.83392864  0.41842325  0.37518682
   0.66732400  0.33240600  0.19435479
   0.91446400  0.32695500  0.19396504
   0.16914200  0.58833400  0.18947786
   0.66961600  0.58928900  0.18986007
   0.58310400  0.91651500  0.09583494
   0.58375143  0.91919630  0.37548679
Direct configuration=     2
  -0.00002335  0.99931510  0.28651677
   0.24915971  0.99977664  0.28501444
   0.49870111  0.99890990  0.28593157
   0.75006925  0.99918656  0.28664924
   0.00131694  0.24942900  0.28655119
   0.24910670  0.24829616  0.28465540
   0.08288200  0.16633200  0.09567643
   0.08605529  0.16903862  0.38003513
   0.49852594  0.24716776  0.28540856
   0.33293900  0.16685800  0.09574221
   0.33408021  0.16834492  0.37904902
   0.75070407  0.25032612  0.28633319
   0.58230700  0.16720100  0.09670311
   0.58477734  0.16837329  0.38012651
   0.83403200  0.16672400  0.09645071
   0.83396865  0.16875354  0.38050887
   0.66558100  0.08305500  0.19258252
   0.91639700  0.08203100  0.19204933
   0.00183766  0.49932093  0.28393469
   0.08092200  0.41609700  0.09594766
   0.08535676  0.41804933  0.37869671
   0.16611800  0.33395200  0.19207541
   0.74879418  0.50028927  0.28427497
   0.58357300  0.41617200  0.09593346
   0.58176341  0.41775008  0.37774373
   0.99964210  0.74882532  0.28687223
   0.24826703  0.74692114  0.28573603
   0.08375800  0.66810400  0.09479725
   0.08155507  0.66377801  0.37994538
   0.49884199  0.74698242  0.28621603
   0.33297400  0.66727700  0.09438780
   0.33310976  0.66631134  0.38006643
   0.74764124  0.74632929  0.28623703
   0.58298100  0.66668200  0.09450950
   0.58200321  0.66540148  0.37963954
   0.41661000  0.58200200  0.19081663
   0.83395900  0.66770600  0.09497894
   0.83200457  0.66360533  0.38017990
   0.91708300  0.58323900  0.19079431
   0.08291700  0.91685800  0.09518613
   0.08366606  0.91627961  0.37997107
   0.33420600  0.91705400  0.09538173
   0.33514317  0.91709637  0.37944190
   0.16670900  0.83524200  0.19136546
   0.41703500  0.83214900  0.19205861
   0.83233100  0.91715000  0.09633654
   0.83175924  0.91678422  0.38036086
   0.66623900  0.83337000  0.19234085
   0.91705900  0.83319500  0.19216177
   0.16168500  0.08211500  0.19130606
   0.41607500  0.07807100  0.19177260
   0.24989649  0.50125390  0.28471738
   0.50190491  0.49929173  0.28359656
   0.33134100  0.41714300  0.09577612
   0.33496144  0.41960343  0.37556002
   0.41638400  0.33144300  0.19252196
   0.83354800  0.41839000  0.09448777
   0.83372319  0.41788305  0.37678660
   0.66732400  0.33240600  0.19435479
   0.91446400  0.32695500  0.19396504
   0.16914200  0.58833400  0.18947786
   0.66961600  0.58928900  0.18986007
   0.58310400  0.91651500  0.09583494
   0.58385448  0.91827913  0.37734399
Direct configuration=     3
  -0.00015165  0.99926810  0.28688139
   0.24950589  0.99984800  0.28572650
   0.49850866  0.99911134  0.28614364
   0.75043058  0.99958644  0.28608251
   0.00047702  0.24848794  0.28729236
   0.24673697  0.24507411  0.28573163
   0.08288200  0.16633200  0.09567643
   0.08421485  0.16788021  0.38009225
   0.49870146  0.24656566  0.28655802
   0.33293900  0.16685800  0.09574221
   0.33446967  0.16750422  0.37894310
   0.74999235  0.24928501  0.28707924
   0.58230700  0.16720100  0.09670311
   0.58229934  0.16796390  0.38015960
   0.83403200  0.16672400  0.09645071
   0.83641659  0.16844965  0.38056047
   0.66558100  0.08305500  0.19258252
   0.91639700  0.08203100  0.19204933
   0.00255234  0.50077449  0.28421690
   0.08092200  0.41609700  0.09594766
   0.08441655  0.41686824  0.37930549
   0.16611800  0.33395200  0.19207541
   0.74927643  0.50138493  0.28461424
   0.58357300  0.41617200  0.09593346
   0.58163427  0.41680527  0.37837615
   0.99979707  0.74918744  0.28731344
   0.24815570  0.74770203  0.28647396
   0.08375800  0.66810400  0.09479725
   0.08333513  0.66539764  0.37986592
   0.49977322  0.74866713  0.28597436
   0.33297400  0.66727700  0.09438780
   0.33141659  0.66743026  0.38010908
   0.74814239  0.74669927  0.28684370
   0.58298100  0.66668200  0.09450950
   0.58462688  0.66614403  0.37945041
   0.41661000  0.58200200  0.19081663
   0.83395900  0.66770600  0.09497894
   0.83206628  0.66545615  0.38012900
   0.91708300  0.58323900  0.19079431
   0.08291700  0.91685800  0.09518613
   0.08314310  0.91621737  0.38009035
   0.33420600  0.91705400  0.09538173
   0.33429706  0.91706182  0.37965883
   0.16670900  0.83524200  0.19136546
   0.41703500  0.83214900  0.19205861
   0.83233100  0.91715000  0.09633654
   0.83251546  0.91670692  0.38079389
   0.66623900  0.83337000  0.19234085
   0.91705900  0.83319500  0.19216177
   0.16168500  0.08211500  0.19130606
   0.41607500  0.07807100  0.19177260
   0.24600444  0.50143385  0.28454770
   0.50911415  0.50394402  0.28555787
   0.33134100  0.41714300  0.09577612
   0.33417591  0.41763398  0.37863949
   0.41638400  0.33144300  0.19252196
   0.83354800  0.41839000  0.09448777
   0.83350957  0.41732136  0.37845001
   0.66732400  0.33240600  0.19435479
   0.91446400  0.32695500  0.19396504
   0.16914200  0.58833400  0.18947786
   0.66961600  0.58928900  0.18986007
   0.58310400  0.91651500  0.09583494
   0.58396163  0.91732549  0.37927506
Direct configuration=     4
  -0.00067656  0.99868949  0.28690565
   0.24943203  0.99939849  0.28588810
   0.49886152  0.99873922  0.28671265
   0.74972219  0.99921509  0.28642861
  -0.00016384  0.24838069  0.28740392
   0.24794696  0.24696237  0.28657572
   0.08288200  0.16633200  0.09567643
   0.08289524  0.16667832  0.38079775
   0.49903317  0.24743084  0.28667256
   0.33293900  0.16685800  0.09574221
   0.33404119  0.16669364  0.37961360
   0.75008651  0.24962419  0.28788730
   0.58230700  0.16720100  0.09670311
   0.58131440  0.16694476  0.38070495
   0.83403200  0.16672400  0.09645071
   0.83685298  0.16741895  0.38087431
   0.66558100  0.08305500  0.19258252
   0.91639700  0.08203100  0.19204933
   0.00110282  0.50091548  0.28478310
   0.08092200  0.41609700  0.09594766
   0.08400906  0.41627935  0.38010459
   0.16611800  0.33395200  0.19207541
   0.75130531  0.50139952  0.28522078
   0.58357300  0.41617200  0.09593346
   0.58183300  0.41589595  0.37971822
   0.00000740  0.74973551  0.28742743
   0.24872553  0.74912889  0.28655936
   0.08375800  0.66810400  0.09479725
   0.08382174  0.66621478  0.38018543
   0.49981421  0.74957970  0.28638632
   0.33297400  0.66727700  0.09438780
   0.33101254  0.66759305  0.38015315
   0.75028380  0.74932865  0.28681279
   0.58298100  0.66668200  0.09450950
   0.58544351  0.66683758  0.37997887
   0.41661000  0.58200200  0.19081663
   0.83395900  0.66770600  0.09497894
   0.83255413  0.66641326  0.38043576
   0.91708300  0.58323900  0.19079431
   0.08291700  0.91685800  0.09518613
   0.08283115  0.91639442  0.38052437
   0.33420600  0.91705400  0.09538173
   0.33388094  0.91707334  0.38023860
   0.16670900  0.83524200  0.19136546
   0.41703500  0.83214900  0.19205861
   0.83233100  0.91715000  0.09633654
   0.83285681  0.91687552  0.38125742
   0.66623900  0.83337000  0.19234085
   0.91705900  0.83319500  0.19216177
   0.16168500  0.08211500  0.19130606
   0.41607500  0.07807100  0.19177260
   0.24694769  0.50054491  0.28544149
   0.50783158  0.50402353  0.28700452
   0.33134100  0.41714300  0.09577612
   0.33364081  0.41711595  0.38034808
   0.41638400  0.33144300  0.19252196
   0.83354800  0.41839000  0.09448777
   0.83344410  0.41696860  0.37983394
   0.66732400  0.33240600  0.19435479
   0.91446400  0.32695500  0.19396504
   0.16914200  0.58833400  0.18947786
   0.66961600  0.58928900  0.18986007
   0.58310400  0.91651500  0.09583494
   0.58435884  0.91697734  0.38048567
Direct configuration=     5
  -0.00153867  0.99773918  0.28694548
   0.24931071  0.99866022  0.28615351
   0.49944105  0.99812805  0.28764719
   0.74855874  0.99860521  0.28699703
  -0.00121637  0.24820455  0.28758714
   0.24993423  0.25006361  0.28796203
   0.08288200  0.16633200  0.09567643
   0.08072792  0.16470434  0.38195646
   0.49957796  0.24885178  0.28686068
   0.33293900  0.16685800  0.09574221
   0.33333747  0.16536236  0.38071481
   0.75024115  0.25018127  0.28921445
   0.58230700  0.16720100  0.09670311
   0.57969673  0.16527095  0.38160062
   0.83403200  0.16672400  0.09645071
   0.83756970  0.16572616  0.38138975
   0.66558100  0.08305500  0.19258252
   0.91639700  0.08203100  0.19204933
  -0.00127785  0.50114704  0.28571303
   0.08092200  0.41609700  0.09594766
   0.08333982  0.41531217  0.38141701
   0.16611800  0.33395200  0.19207541
   0.75463751  0.50142347  0.28621696
   0.58357300  0.41617200  0.09593346
   0.58215939  0.41440251  0.38192243
   0.00035283  0.75063564  0.28761464
   0.24966139  0.75147233  0.28669961
   0.08375800  0.66810400  0.09479725
   0.08462092  0.66755685  0.38071018
   0.49988154  0.75107849  0.28706293
   0.33297400  0.66727700  0.09438780
   0.33034892  0.66786042  0.38022554
   0.75380081  0.75364709  0.28676202
   0.58298100  0.66668200  0.09450950
   0.58678474  0.66797666  0.38084681
   0.41661000  0.58200200  0.19081663
   0.83395900  0.66770600  0.09497894
   0.83335537  0.66798520  0.38093959
   0.91708300  0.58323900  0.19079431
   0.08291700  0.91685800  0.09518613
   0.08231880  0.91668521  0.38123720
   0.33420600  0.91705400  0.09538173
   0.33319753  0.91709225  0.38119081
   0.16670900  0.83524200  0.19136546
   0.41703500  0.83214900  0.19205861
   0.83233100  0.91715000  0.09633654
   0.83341745  0.91715242  0.38201872
   0.66623900  0.83337000  0.19234085
   0.91705900  0.83319500  0.19216177
   0.16168500  0.08211500  0.19130606
   0.41607500  0.07807100  0.19177260
   0.24849688  0.49908493  0.28690943
   0.50572511  0.50415411  0.28938047
   0.33134100  0.41714300  0.09577612
   0.33276198  0.41626513  0.38315424
   0.41638400  0.33144300  0.19252196
   0.83354800  0.41839000  0.09448777
   0.83333657  0.41638923  0.38210687
   0.66732400  0.33240600  0.19435479
   0.91446400  0.32695500  0.19396504
   0.16914200  0.58833400  0.18947786
   0.66961600  0.58928900  0.18986007
   0.58310400  0.91651500  0.09583494
   0.58501121  0.91640555  0.38247397
Direct configuration=     6
   0.00025303  0.99989139  0.28703252
   0.24969536  0.00010648  0.28628510
   0.49991300  0.99887814  0.28823632
   0.74814891  0.99887277  0.28771821
  -0.00066212  0.24894016  0.28770329
   0.25078084  0.25125095  0.28856085
   0.08288200  0.16633200  0.09567643
   0.08091535  0.16434645  0.38252847
   0.49996234  0.25014138  0.28712110
   0.33293900  0.16685800  0.09574221
   0.33271908  0.16513288  0.38142798
   0.75008532  0.25030363  0.28980703
   0.58230700  0.16720100  0.09670311
   0.58002306  0.16430167  0.38239169
   0.83403200  0.16672400  0.09645071
   0.83616288  0.16492447  0.38206804
   0.66558100  0.08305500  0.19258252
   0.91639700  0.08203100  0.19204933
   0.00030136  0.50111940  0.28640165
   0.08092200  0.41609700  0.09594766
   0.08321761  0.41519566  0.38195015
   0.16611800  0.33395200  0.19207541
   0.75306292  0.50174328  0.28708248
   0.58357300  0.41617200  0.09593346
   0.58251593  0.41434235  0.38295867
   0.00102096  0.75114885  0.28767875
   0.24927432  0.75032900  0.28649374
   0.08375800  0.66810400  0.09479725
   0.08395738  0.66740384  0.38117219
   0.49985873  0.75047108  0.28768087
   0.33297400  0.66727700  0.09438780
   0.33076343  0.66738552  0.38063681
   0.75248830  0.75221247  0.28677113
   0.58298100  0.66668200  0.09450950
   0.58663792  0.66815249  0.38164315
   0.41661000  0.58200200  0.19081663
   0.83395900  0.66770600  0.09497894
   0.83354723  0.66762873  0.38140834
   0.91708300  0.58323900  0.19079431
   0.08291700  0.91685800  0.09518613
   0.08250853  0.91710522  0.38174515
   0.33420600  0.91705400  0.09538173
   0.33309788  0.91691284  0.38194158
   0.16670900  0.83524200  0.19136546
   0.41703500  0.83214900  0.19205861
   0.83233100  0.91715000  0.09633654
   0.83328371  0.91711930  0.38269854
   0.66623900  0.83337000  0.19234085
   0.91705900  0.83319500  0.19216177
   0.16168500  0.08211500  0.19130606
   0.41607500  0.07807100  0.19177260
   0.24905719  0.49912554  0.28791411
   0.50541349  0.50364782  0.29015584
   0.33134100  0.41714300  0.09577612
   0.33265091  0.41637502  0.38472268
   0.41638400  0.33144300  0.19252196
   0.83354800  0.41839000  0.09448777
   0.83335936  0.41608744  0.38323949
   0.66732400  0.33240600  0.19435479
   0.91446400  0.32695500  0.19396504
   0.16914200  0.58833400  0.18947786
   0.66961600  0.58928900  0.18986007
   0.58310400  0.91651500  0.09583494
   0.58502658  0.91647046  0.38309626
Direct configuration=     7
   0.00151501  0.00140731  0.28709383
   0.24996630  0.00112516  0.28637778
   0.50024542  0.99940647  0.28865127
   0.74786024  0.99906123  0.28822617
  -0.00027174  0.24945828  0.28778511
   0.25137714  0.25208725  0.28898264
   0.08288200  0.16633200  0.09567643
   0.08104736  0.16409438  0.38293138
   0.50023308  0.25104971  0.28730452
   0.33293900  0.16685800  0.09574221
   0.33228352  0.16497124  0.38193031
   0.74997556  0.25038982  0.29022441
   0.58230700  0.16720100  0.09670311
   0.58025291  0.16361895  0.38294888
   0.83403200  0.16672400  0.09645071
   0.83517198  0.16435980  0.38254579
   0.66558100  0.08305500  0.19258252
   0.91639700  0.08203100  0.19204933
   0.00141369  0.50109993  0.28688667
   0.08092200  0.41609700  0.09594766
   0.08313153  0.41511359  0.38232566
   0.16611800  0.33395200  0.19207541
   0.75195386  0.50196854  0.28769212
   0.58357300  0.41617200  0.09593346
   0.58276706  0.41429997  0.38368854
   0.00149156  0.75151032  0.28772392
   0.24900168  0.74952369  0.28634874
   0.08375800  0.66810400  0.09479725
   0.08349000  0.66729607  0.38149761
   0.49984267  0.75004324  0.28811612
   0.33297400  0.66727700  0.09438780
   0.33105538  0.66705102  0.38092650
   0.75156383  0.75120200  0.28677755
   0.58298100  0.66668200  0.09450950
   0.58653451  0.66827634  0.38220406
   0.41661000  0.58200200  0.19081663
   0.83395900  0.66770600  0.09497894
   0.83368237  0.66737765  0.38173852
   0.91708300  0.58323900  0.19079431
   0.08291700  0.91685800  0.09518613
   0.08264218  0.91740105  0.38210293
   0.33420600  0.91705400  0.09538173
   0.33302769  0.91678648  0.38247038
   0.16670900  0.83524200  0.19136546
   0.41703500  0.83214900  0.19205861
   0.83233100  0.91715000  0.09633654
   0.83318951  0.91709598  0.38317738
   0.66623900  0.83337000  0.19234085
   0.91705900  0.83319500  0.19216177
   0.16168500  0.08211500  0.19130606
   0.41607500  0.07807100  0.19177260
   0.24945185  0.49915414  0.28862175
   0.50519400  0.50329121  0.29070197
   0.33134100  0.41714300  0.09577612
   0.33257268  0.41645242  0.38582742
   0.41638400  0.33144300  0.19252196
   0.83354800  0.41839000  0.09448777
   0.83337541  0.41587486  0.38403725
   0.66732400  0.33240600  0.19435479
   0.91446400  0.32695500  0.19396504
   0.16914200  0.58833400  0.18947786
   0.66961600  0.58928900  0.18986007
   0.58310400  0.91651500  0.09583494
   0.58503740  0.91651618  0.38353457
Direct configuration=     8
   0.00106965  0.00151406  0.28744957
   0.25086706  0.00168475  0.28666009
   0.49942088  0.99943420  0.28870345
   0.74861004  0.99913305  0.28836942
  -0.00000802  0.24957946  0.28824439
   0.25147208  0.25237749  0.28904907
   0.08288200  0.16633200  0.09567643
   0.08141042  0.16495392  0.38304897
   0.50027236  0.25091817  0.28791547
   0.33293900  0.16685800  0.09574221
   0.33295569  0.16557000  0.38215749
   0.75041464  0.25141504  0.29022938
   0.58230700  0.16720100  0.09670311
   0.58044030  0.16395352  0.38338366
   0.83403200  0.16672400  0.09645071
   0.83503368  0.16489437  0.38300017
   0.66558100  0.08305500  0.19258252
   0.91639700  0.08203100  0.19204933
   0.00134755  0.50069345  0.28690490
   0.08092200  0.41609700  0.09594766
   0.08296457  0.41473143  0.38268894
   0.16611800  0.33395200  0.19207541
   0.75149628  0.50176480  0.28780120
   0.58357300  0.41617200  0.09593346
   0.58241096  0.41432641  0.38400508
   0.00140568  0.75161338  0.28806095
   0.24921253  0.74932913  0.28669406
   0.08375800  0.66810400  0.09479725
   0.08323650  0.66699659  0.38170349
   0.49997644  0.74966907  0.28820675
   0.33297400  0.66727700  0.09438780
   0.33119993  0.66697610  0.38158832
   0.75097261  0.75053797  0.28723218
   0.58298100  0.66668200  0.09450950
   0.58614107  0.66769379  0.38272244
   0.41661000  0.58200200  0.19081663
   0.83395900  0.66770600  0.09497894
   0.83375230  0.66719479  0.38204438
   0.91708300  0.58323900  0.19079431
   0.08291700  0.91685800  0.09518613
   0.08266450  0.91712449  0.38214544
   0.33420600  0.91705400  0.09538173
   0.33275271  0.91621645  0.38242863
   0.16670900  0.83524200  0.19136546
   0.41703500  0.83214900  0.19205861
   0.83233100  0.91715000  0.09633654
   0.83321820  0.91665874  0.38317271
   0.66623900  0.83337000  0.19234085
   0.91705900  0.83319500  0.19216177
   0.16168500  0.08211500  0.19130606
   0.41607500  0.07807100  0.19177260
   0.24951030  0.49946433  0.28859935
   0.50537731  0.50300122  0.29078579
   0.33134100  0.41714300  0.09577612
   0.33293252  0.41653634  0.38646998
   0.41638400  0.33144300  0.19252196
   0.83354800  0.41839000  0.09448777
   0.83340675  0.41587621  0.38404912
   0.66732400  0.33240600  0.19435479
   0.91446400  0.32695500  0.19396504
   0.16914200  0.58833400  0.18947786
   0.66961600  0.58928900  0.18986007
   0.58310400  0.91651500  0.09583494
   0.58443863  0.91635662  0.38353827
Direct configuration=     9
   0.00085569  0.00156534  0.28762047
   0.25129981  0.00195359  0.28679572
   0.49902476  0.99944752  0.28872851
   0.74897025  0.99916755  0.28843824
   0.00011868  0.24963768  0.28846505
   0.25151769  0.25251692  0.28908098
   0.08288200  0.16633200  0.09567643
   0.08158484  0.16536687  0.38310547
   0.50029123  0.25085498  0.28820898
   0.33293900  0.16685800  0.09574221
   0.33327861  0.16585766  0.38226663
   0.75062559  0.25190758  0.29023176
   0.58230700  0.16720100  0.09670311
   0.58053033  0.16411426  0.38359254
   0.83403200  0.16672400  0.09645071
   0.83496724  0.16515119  0.38321846
   0.66558100  0.08305500  0.19258252
   0.91639700  0.08203100  0.19204933
   0.00131577  0.50049817  0.28691365
   0.08092200  0.41609700  0.09594766
   0.08288436  0.41454782  0.38286346
   0.16611800  0.33395200  0.19207541
   0.75127645  0.50166691  0.28785361
   0.58357300  0.41617200  0.09593346
   0.58223988  0.41433911  0.38415715
   0.00136442  0.75166289  0.28822287
   0.24931383  0.74923566  0.28685996
   0.08375800  0.66810400  0.09479725
   0.08311471  0.66685272  0.38180240
   0.50004071  0.74948932  0.28825028
   0.33297400  0.66727700  0.09438780
   0.33126937  0.66694011  0.38190627
   0.75068858  0.75021896  0.28745059
   0.58298100  0.66668200  0.09450950
   0.58595205  0.66741392  0.38297148
   0.41661000  0.58200200  0.19081663
   0.83395900  0.66770600  0.09497894
   0.83378589  0.66710694  0.38219132
   0.91708300  0.58323900  0.19079431
   0.08291700  0.91685800  0.09518613
   0.08267522  0.91699163  0.38216586
   0.33420600  0.91705400  0.09538173
   0.33262060  0.91594260  0.38240856
   0.16670900  0.83524200  0.19136546
   0.41703500  0.83214900  0.19205861
   0.83233100  0.91715000  0.09633654
   0.83323198  0.91644868  0.38317047
   0.66623900  0.83337000  0.19234085
   0.91705900  0.83319500  0.19216177
   0.16168500  0.08211500  0.19130606
   0.41607500  0.07807100  0.19177260
   0.24953838  0.49961336  0.28858859
   0.50546538  0.50286190  0.29082607
   0.33134100  0.41714300  0.09577612
   0.33310540  0.41657666  0.38677868
   0.41638400  0.33144300  0.19252196
   0.83354800  0.41839000  0.09448777
   0.83342181  0.41587686  0.38405482
   0.66732400  0.33240600  0.19435479
   0.91446400  0.32695500  0.19396504
   0.16914200  0.58833400  0.18947786
   0.66961600  0.58928900  0.18986007
   0.58310400  0.91651500  0.09583494
   0.58415096  0.91627996  0.38354005
Direct configuration=    10
   0.00072815  0.00110125  0.28770147
   0.25088737  0.00172871  0.28686513
   0.49957130  0.99942970  0.28869328
   0.74881921  0.99936863  0.28847241
   0.00000202  0.24964383  0.28858645
   0.25146814  0.25248466  0.28909481
   0.08288200  0.16633200  0.09567643
   0.08181352  0.16565754  0.38326043
   0.50045141  0.25078939  0.28829107
   0.33293900  0.16685800  0.09574221
   0.33338363  0.16601675  0.38246619
   0.75054107  0.25158483  0.29021856
   0.58230700  0.16720100  0.09670311
   0.58066631  0.16433569  0.38372142
   0.83403200  0.16672400  0.09645071
   0.83491639  0.16524186  0.38334221
   0.66558100  0.08305500  0.19258252
   0.91639700  0.08203100  0.19204933
   0.00119720  0.50071651  0.28685804
   0.08092200  0.41609700  0.09594766
   0.08320722  0.41485200  0.38304061
   0.16611800  0.33395200  0.19207541
   0.75171707  0.50175752  0.28778736
   0.58357300  0.41617200  0.09593346
   0.58221613  0.41459128  0.38432912
   0.00125454  0.75154366  0.28831387
   0.24933650  0.74915958  0.28711970
   0.08375800  0.66810400  0.09479725
   0.08314218  0.66642538  0.38191469
   0.50010953  0.74960967  0.28836950
   0.33297400  0.66727700  0.09438780
   0.33111036  0.66661682  0.38221988
   0.75078076  0.75024851  0.28763850
   0.58298100  0.66668200  0.09450950
   0.58569293  0.66704488  0.38321334
   0.41661000  0.58200200  0.19081663
   0.83395900  0.66770600  0.09497894
   0.83360493  0.66684022  0.38243035
   0.91708300  0.58323900  0.19079431
   0.08291700  0.91685800  0.09518613
   0.08288266  0.91713884  0.38219339
   0.33420600  0.91705400  0.09538173
   0.33256195  0.91584539  0.38243669
   0.16670900  0.83524200  0.19136546
   0.41703500  0.83214900  0.19205861
   0.83233100  0.91715000  0.09633654
   0.83316701  0.91645368  0.38321989
   0.66623900  0.83337000  0.19234085
   0.91705900  0.83319500  0.19216177
   0.16168500  0.08211500  0.19130606
   0.41607500  0.07807100  0.19177260
   0.24963826  0.49980291  0.28871465
   0.50520421  0.50268721  0.29087731
   0.33134100  0.41714300  0.09577612
   0.33316698  0.41663164  0.38691571
   0.41638400  0.33144300  0.19252196
   0.83354800  0.41839000  0.09448777
   0.83340103  0.41599012  0.38391818
   0.66732400  0.33240600  0.19435479
   0.91446400  0.32695500  0.19396504
   0.16914200  0.58833400  0.18947786
   0.66961600  0.58928900  0.18986007
   0.58310400  0.91651500  0.09583494
   0.58399433  0.91624227  0.38334752
