       N       E                     dE             d eps       ncg     rms          rms(c)
DAV:   1     0.433428976668E+04    0.43343E+04   -0.22888E+05  8160   0.140E+03
DAV:   2    -0.670102159976E+02   -0.44013E+04   -0.40926E+04  8160   0.327E+02
DAV:   3    -0.439972406672E+03   -0.37296E+03   -0.31724E+03  8529   0.134E+02
DAV:   4    -0.455061139307E+03   -0.15089E+02   -0.14723E+02  8652   0.293E+01
DAV:   5    -0.455321424040E+03   -0.26028E+00   -0.26002E+00  9219   0.330E+00    0.504E-01
RMM:   6    -0.455438904143E+03   -0.11748E+00   -0.14988E-01  8405   0.953E-01    0.172E+00
RMM:   7    -0.455442834600E+03   -0.39305E-02   -0.31192E-02 10494   0.317E-01    0.155E+00
RMM:   8    -0.455429793554E+03    0.13041E-01   -0.84191E-03  8519   0.194E-01    0.719E-01
RMM:   9    -0.455428046236E+03    0.17473E-02   -0.31451E-03  8587   0.122E-01    0.326E-01
RMM:  10    -0.455427922476E+03    0.12376E-03   -0.17365E-03  8564   0.930E-02    0.397E-01
RMM:  11    -0.455426355913E+03    0.15666E-02   -0.86871E-04  8507   0.700E-02    0.259E-01
RMM:  12    -0.455425865671E+03    0.49024E-03   -0.61518E-04  8511   0.591E-02    0.228E-01
RMM:  13    -0.455424708007E+03    0.11577E-02   -0.33496E-04  8428   0.443E-02    0.220E-01
RMM:  14    -0.455424228113E+03    0.47989E-03   -0.28851E-04  8497   0.432E-02    0.120E-01
RMM:  15    -0.455423916816E+03    0.31130E-03   -0.17867E-04  8392   0.323E-02    0.174E-01
RMM:  16    -0.455423831584E+03    0.85232E-04   -0.99687E-05  8413   0.264E-02    0.664E-02
RMM:  17    -0.455424230498E+03   -0.39891E-03   -0.65553E-05  8384   0.189E-02    0.111E-01
RMM:  18    -0.455424880513E+03   -0.65002E-03   -0.46423E-05  8379   0.170E-02    0.495E-02
RMM:  19    -0.455425552753E+03   -0.67224E-03   -0.41374E-05  8434   0.149E-02    0.849E-02
RMM:  20    -0.455427155393E+03   -0.16026E-02   -0.52632E-05  8358   0.147E-02    0.443E-02
RMM:  21    -0.455427752773E+03   -0.59738E-03   -0.28899E-05  8481   0.120E-02    0.514E-02
RMM:  22    -0.455428919260E+03   -0.11665E-02   -0.28971E-05  8337   0.987E-03    0.256E-02
RMM:  23    -0.455429220569E+03   -0.30131E-03   -0.12125E-05  8421   0.728E-03    0.295E-02
RMM:  24    -0.455429535027E+03   -0.31446E-03   -0.12577E-05  7838   0.542E-03    0.152E-02
RMM:  25    -0.455429551648E+03   -0.16621E-04   -0.31087E-06  6319   0.368E-03    0.114E-02
RMM:  26    -0.455429517861E+03    0.33786E-04   -0.24343E-06  5892   0.271E-03    0.801E-03
RMM:  27    -0.455429501152E+03    0.16709E-04   -0.70208E-07  5308   0.219E-03    0.540E-03
RMM:  28    -0.455429463717E+03    0.37435E-04   -0.45553E-07  5184   0.146E-03    0.504E-03
RMM:  29    -0.455429460620E+03    0.30974E-05   -0.21661E-07  4934   0.126E-03    0.343E-03
RMM:  30    -0.455429466198E+03   -0.55778E-05   -0.11099E-07  4803   0.696E-04    0.280E-03
RMM:  31    -0.455429472243E+03   -0.60459E-05   -0.60890E-08  4638   0.625E-04    0.225E-03
RMM:  32    -0.455429491526E+03   -0.19282E-04   -0.11682E-07  4620   0.497E-04    0.138E-03
RMM:  33    -0.455429499471E+03   -0.79456E-05   -0.54062E-08  4393   0.462E-04    0.211E-03
RMM:  34    -0.455429523915E+03   -0.24444E-04   -0.12029E-07  3744   0.423E-04    0.100E-03
RMM:  35    -0.455429535116E+03   -0.11201E-04   -0.60070E-08  3778   0.388E-04    0.137E-03
RMM:  36    -0.455429557579E+03   -0.22464E-04   -0.14769E-07  3579   0.421E-04    0.221E-03
RMM:  37    -0.455429565194E+03   -0.76143E-05   -0.56756E-08  3134   0.368E-04    0.197E-03
RMM:  38    -0.455429577173E+03   -0.11979E-04   -0.11120E-07  3201   0.393E-04    0.647E-04
RMM:  39    -0.455429585828E+03   -0.86550E-05   -0.11867E-07  3619   0.390E-04    0.765E-04
RMM:  40    -0.455429593101E+03   -0.72728E-05   -0.12019E-07  3549   0.404E-04    0.728E-04
RMM:  41    -0.455429595169E+03   -0.20685E-05   -0.37109E-08  2830   0.350E-04    0.593E-04
RMM:  42    -0.455429596360E+03   -0.11909E-05   -0.21931E-08  2431   0.312E-04    0.352E-04
RMM:  43    -0.455429597172E+03   -0.81179E-06   -0.17596E-08  2433   0.301E-04
   1 F= -.45542960E+03 E0= -.45542960E+03  d E =0.000000E+00  mag=   137.1455
