       N       E                     dE             d eps       ncg     rms          rms(c)
DAV:   1     0.463051900777E+04    0.46305E+04   -0.26837E+05 33120   0.162E+03
DAV:   2     0.861523903410E+02   -0.45444E+04   -0.42799E+04 33120   0.360E+02
DAV:   3    -0.351390354721E+03   -0.43754E+03   -0.37752E+03 34047   0.151E+02
DAV:   4    -0.369917654209E+03   -0.18527E+02   -0.18164E+02 35352   0.340E+01
DAV:   5    -0.370280171553E+03   -0.36252E+00   -0.36224E+00 39420   0.366E+00
RMM:   6    -0.370292506590E+03   -0.12335E-01   -0.12331E-01 34435   0.693E-01
RMM:   7    -0.370296346948E+03   -0.38404E-02   -0.38308E-02 50531   0.268E-01
RMM:   8    -0.370296437901E+03   -0.90953E-04   -0.99316E-04 45250   0.302E-02
RMM:   9    -0.370296459702E+03   -0.21800E-04   -0.21290E-04 36169   0.936E-03
RMM:  10    -0.370296462237E+03   -0.25359E-05   -0.21753E-05 23407   0.350E-03
RMM:  11    -0.370296462965E+03   -0.72736E-06   -0.66324E-06 21490   0.206E-03
   1 F= -.37029646E+03 E0= -.37029646E+03  d E =0.000000E+00  mag=    71.5634
