 vasp.5.4.4.18Apr17-6-g9f103f2a35 (build Sep 06 2021 19:49:22) complex          
  
 executed on             LinuxIFC date 2022.01.05  02:58:11
 running on   72 total cores
 distrk:  each k-point on   72 cores,    1 groups
 distr:  one band on NCORES_PER_BAND=  24 cores,    3 groups


--------------------------------------------------------------------------------------------------------


 INCAR:
 POTCAR:    PAW_PBE Ni 02Aug2007                  
 POTCAR:    PAW_PBE Fe 06Sep2000                  

 ----------------------------------------------------------------------------- 
|                                                                             |
|           W    W    AA    RRRRR   N    N  II  N    N   GGGG   !!!           |
|           W    W   A  A   R    R  NN   N  II  NN   N  G    G  !!!           |
|           W    W  A    A  R    R  N N  N  II  N N  N  G       !!!           |
|           W WW W  AAAAAA  RRRRR   N  N N  II  N  N N  G  GGG   !            |
|           WW  WW  A    A  R   R   N   NN  II  N   NN  G    G                |
|           W    W  A    A  R    R  N    N  II  N    N   GGGG   !!!           |
|                                                                             |
|      For optimal performance we recommend to set                            |
|        NCORE= 4 - approx SQRT( number of cores)                             |
|      NCORE specifies how many cores store one orbital (NPAR=cpu/NCORE).     |
|      This setting can  greatly improve the performance of VASP for DFT.     |
|      The default,   NCORE=1            might be grossly inefficient         |
|      on modern multi-core architectures or massively parallel machines.     |
|      Do your own testing !!!!                                               |
|      Unfortunately you need to use the default for GW and RPA calculations. |
|      (for HF NCORE is supported but not extensively tested yet)             |
|                                                                             |
 ----------------------------------------------------------------------------- 

 POTCAR:    PAW_PBE Ni 02Aug2007                  
   VRHFIN =Ni:                                                                  
   LEXCH  = PE                                                                  
   EATOM  =  1077.6739 eV,   79.2068 Ry                                         
                                                                                
   TITEL  = PAW_PBE Ni 02Aug2007                                                
   LULTRA =        F    use ultrasoft PP ?                                      
   IUNSCR =        1    unscreen: 0-lin 1-nonlin 2-no                           
   RPACOR =    2.000    partial core radius                                     
   POMASS =   58.690; ZVAL   =   10.000    mass and valenz                      
   RCORE  =    2.300    outmost cutoff radius                                   
   RWIGS  =    2.430; RWIGS  =    1.286    wigner-seitz radius (au A)           
   ENMAX  =  269.532; ENMIN  =  202.149 eV                                      
   RCLOC  =    1.201    cutoff for local pot                                    
   LCOR   =        T    correct aug charges                                     
   LPAW   =        T    paw PP                                                  
   EAUG   =  544.565                                                            
   DEXC   =    0.000                                                            
   RMAX   =    2.357    core radius for proj-oper                               
   RAUG   =    1.300    factor for augmentation sphere                          
   RDEP   =    2.390    radius for radial grids                                 
   RDEPT  =    1.838    core radius for aug-charge                              
                                                                                
   Atomic configuration                                                         
    9 entries                                                                   
     n  l   j            E        occ.                                          
     1  0  0.50     -8206.4253   2.0000                                         
     2  0  0.50      -976.1748   2.0000                                         
     2  1  1.50      -839.0571   6.0000                                         
     3  0  0.50      -105.9991   2.0000                                         
     3  1  1.50       -66.4603   6.0000                                         
     3  2  2.50        -4.6458   9.0000                                         
     4  0  0.50        -4.4926   1.0000                                         
     4  1  1.50        -4.0817   0.0000                                         
     4  3  2.50        -1.3606   0.0000                                         
   Description                                                                  
     l       E           TYP  RCUT    TYP  RCUT                                 
     2     -4.6457903     23  2.300                                             
     2     -6.0063729     23  2.300                                             
     0     -4.4925590     23  2.300                                             
     0      5.0102601     23  2.300                                             
     1     -2.7211652     23  2.300                                             
     1     16.5183231     23  2.300                                             
  local pseudopotential read in
  partial core-charges read in
  partial kinetic energy density read in
  atomic valenz-charges read in
  non local Contribution for L=           2  read in
    real space projection operators read in
  non local Contribution for L=           2  read in
    real space projection operators read in
  non local Contribution for L=           0  read in
    real space projection operators read in
  non local Contribution for L=           0  read in
    real space projection operators read in
  non local Contribution for L=           1  read in
    real space projection operators read in
  non local Contribution for L=           1  read in
    real space projection operators read in
    PAW grid and wavefunctions read in
 
   number of l-projection  operators is LMAX  =           6
   number of lm-projection operators is LMMAX =          18
 
 POTCAR:    PAW_PBE Fe 06Sep2000                  
   VRHFIN =Fe:  d7 s1                                                           
   LEXCH  = PE                                                                  
   EATOM  =   594.3153 eV,   43.6809 Ry                                         
                                                                                
   TITEL  = PAW_PBE Fe 06Sep2000                                                
   LULTRA =        F    use ultrasoft PP ?                                      
   IUNSCR =        1    unscreen: 0-lin 1-nonlin 2-no                           
   RPACOR =    2.000    partial core radius                                     
   POMASS =   55.847; ZVAL   =    8.000    mass and valenz                      
   RCORE  =    2.300    outmost cutoff radius                                   
   RWIGS  =    2.460; RWIGS  =    1.302    wigner-seitz radius (au A)           
   ENMAX  =  267.882; ENMIN  =  200.911 eV                                      
   RCLOC  =    1.701    cutoff for local pot                                    
   LCOR   =        T    correct aug charges                                     
   LPAW   =        T    paw PP                                                  
   EAUG   =  511.368                                                            
   DEXC   =    0.000                                                            
   RMAX   =    2.356    core radius for proj-oper                               
   RAUG   =    1.300    factor for augmentation sphere                          
   RDEP   =    2.442    radius for radial grids                                 
   RDEPT  =    1.890    core radius for aug-charge                              
                                                                                
   Atomic configuration                                                         
    9 entries                                                                   
     n  l   j            E        occ.                                          
     1  0  0.50     -6993.8440   2.0000                                         
     2  0  0.50      -814.6047   2.0000                                         
     2  1  1.50      -693.3689   6.0000                                         
     3  0  0.50       -89.4732   2.0000                                         
     3  1  1.50       -55.6373   6.0000                                         
     3  2  2.50        -3.8151   7.0000                                         
     4  0  0.50        -4.2551   1.0000                                         
     4  1  1.50        -3.4015   0.0000                                         
     4  3  2.50        -1.3606   0.0000                                         
   Description                                                                  
     l       E           TYP  RCUT    TYP  RCUT                                 
     2     -3.8151135     23  2.300                                             
     2     -5.1756961     23  2.300                                             
     0     -4.2550963     23  2.300                                             
     0      7.2035603     23  2.300                                             
     1     -2.7211652     23  2.300                                             
     1     18.4316424     23  2.300                                             
  local pseudopotential read in
  partial core-charges read in
  partial kinetic energy density read in
  atomic valenz-charges read in
  non local Contribution for L=           2  read in
    real space projection operators read in
  non local Contribution for L=           2  read in
    real space projection operators read in
  non local Contribution for L=           0  read in
    real space projection operators read in
  non local Contribution for L=           0  read in
    real space projection operators read in
  non local Contribution for L=           1  read in
    real space projection operators read in
  non local Contribution for L=           1  read in
    real space projection operators read in
    PAW grid and wavefunctions read in
 
   number of l-projection  operators is LMAX  =           6
   number of lm-projection operators is LMMAX =          18
 
 Optimization of the real space projectors (new method)

 maximal supplied QI-value         = 16.25
 optimisation between [QCUT,QGAM] = [ 11.54, 23.24] = [ 37.28,151.24] Ry 
 Optimized for a Real-space Cutoff    1.45 Angstroem

   l    n(q)    QCUT    max X(q) W(low)/X(q) W(high)/X(q)  e(spline) 
   2      9    11.539    60.317    0.19E-03    0.47E-04    0.16E-06
   2      9    11.539    55.921    0.19E-03    0.48E-04    0.16E-06
   0     10    11.539    51.690    0.80E-04    0.50E-04    0.24E-06
   0     10    11.539    30.015    0.73E-04    0.45E-04    0.22E-06
   1     10    11.539    18.849    0.87E-04    0.16E-03    0.71E-07
   1     10    11.539    14.624    0.73E-04    0.13E-03    0.64E-07
 Optimization of the real space projectors (new method)

 maximal supplied QI-value         = 16.25
 optimisation between [QCUT,QGAM] = [ 11.54, 23.24] = [ 37.28,151.24] Ry 
 Optimized for a Real-space Cutoff    1.53 Angstroem

   l    n(q)    QCUT    max X(q) W(low)/X(q) W(high)/X(q)  e(spline) 
   2     10    11.539    80.901    0.11E-03    0.14E-03    0.21E-06
   2     10    11.539    75.754    0.11E-03    0.14E-03    0.22E-06
   0     11    11.539    58.752    0.52E-04    0.18E-04    0.33E-06
   0     11    11.539    30.679    0.44E-04    0.16E-04    0.30E-06
   1     10    11.539    17.977    0.53E-04    0.29E-04    0.13E-06
   1     10    11.539    13.559    0.44E-04    0.25E-04    0.11E-06
  PAW_PBE Ni 02Aug2007                  :
 energy of atom  1       EATOM=-1077.6739
 kinetic energy error for atom=    0.0030 (will be added to EATOM!!)
  PAW_PBE Fe 06Sep2000                  :
 energy of atom  2       EATOM= -594.3153
 kinetic energy error for atom=    0.0026 (will be added to EATOM!!)
 
 
 POSCAR: POSCAR                                  
  positions in direct lattice
  velocities in cartesian coordinates
 exchange correlation table for  LEXCH =        8
   RHO(1)=    0.500       N(1)  =     2000
   RHO(2)=  100.500       N(2)  =     4000
 


--------------------------------------------------------------------------------------------------------


 ion  position               nearest neighbor table
   1  0.001  0.001  0.096-  44 2.49   9 2.50  13 2.50  38 2.50   3 2.50  11 2.50  30 2.50   7 2.51
                            48 2.52
   2  0.000  0.000  0.382-  51 2.44  22 2.47  10 2.48   4 2.48  50 2.48  31 2.50  39 2.51   8 2.51
                            12 2.53
   3  0.250  0.000  0.095-  30 2.50   1 2.50  14 2.50  11 2.51   5 2.51  44 2.51  32 2.52  45 2.52
                            16 2.52
   4  0.249  0.002  0.382-  52 2.46  51 2.47  46 2.48   2 2.48  15 2.49  31 2.50  12 2.50  33 2.52
                             6 2.53
   5  0.499  0.999  0.096-  45 2.49  14 2.50   7 2.50  64 2.51  35 2.51   3 2.51  32 2.51  17 2.52
                            19 2.53
   6  0.500  0.999  0.383-  52 2.45  21 2.47  47 2.48  15 2.49   8 2.50  33 2.50  36 2.51  18 2.52
                             4 2.53
   7  0.749  0.999  0.096-  38 2.50   9 2.50   5 2.50  35 2.50  64 2.51  48 2.51  17 2.51   1 2.51
                            20 2.52
   8  0.749  0.999  0.382-  49 2.47  21 2.47  22 2.47  10 2.49   6 2.50  39 2.50  36 2.51   2 2.51
                            18 2.52
   9  0.999  0.249  0.096-  17 2.50   1 2.50   7 2.50  13 2.51  53 2.51  20 2.51  23 2.51  11 2.51
                            25 2.52
  10  0.998  0.247  0.384-  61 2.42   2 2.48   8 2.49  22 2.49  26 2.50  18 2.51  54 2.51  12 2.52
                            24 2.52
  11  0.250  0.250  0.095-   1 2.50  53 2.50   3 2.51  16 2.51   9 2.51  13 2.52  57 2.52  14 2.52
                            55 2.55
  12  0.252  0.253  0.384-  58 2.45  26 2.49  54 2.50   4 2.50  15 2.51  51 2.51  10 2.52  56 2.52
                             2 2.53
  13  0.083  0.166  0.192-  51 2.47  22 2.48  20 2.50   1 2.50  44 2.50  57 2.50  16 2.50   9 2.51
                            48 2.51  25 2.51  11 2.52  26 2.52
  14  0.501  0.249  0.096-   5 2.50  17 2.50   3 2.50  19 2.51  16 2.51  29 2.51  55 2.51  11 2.52
                            27 2.53
  15  0.499  0.247  0.385-  60 2.45  58 2.47   4 2.49   6 2.49  18 2.50  12 2.51  52 2.51  56 2.53
                            28 2.53
  16  0.333  0.167  0.192-  19 2.50  13 2.50  29 2.51  44 2.51  51 2.51  45 2.51  11 2.51  14 2.51
                            57 2.52   3 2.52  52 2.53  58 2.53
  17  0.751  0.250  0.097-  59 2.48   9 2.50  14 2.50  20 2.50   7 2.51  23 2.52  19 2.52   5 2.52
                            27 2.52
  18  0.750  0.251  0.385-  60 2.44  61 2.45  15 2.50  24 2.50  28 2.51  10 2.51  21 2.52   8 2.52
                             6 2.52
  19  0.582  0.167  0.193-  52 2.47  21 2.48  29 2.49  45 2.50  16 2.50  14 2.51  17 2.52  64 2.52
                            59 2.52  60 2.53  20 2.53   5 2.53
  20  0.834  0.167  0.193-  22 2.47  25 2.49  21 2.49  48 2.49  13 2.50  17 2.50  61 2.51   9 2.51
                            64 2.51   7 2.52  59 2.53  19 2.53
  21  0.666  0.084  0.288-  52 2.47  61 2.47   8 2.47   6 2.47  60 2.47  19 2.48  20 2.49  64 2.50
                            47 2.51  18 2.52  22 2.52  49 2.52
  22  0.917  0.083  0.288-  61 2.46  51 2.46   2 2.47  48 2.47  20 2.47   8 2.47  13 2.48  10 2.49
                            50 2.51  49 2.51  21 2.52  26 2.52
  23  0.002  0.500  0.094-  53 2.48  32 2.48   9 2.51  27 2.52  17 2.52  30 2.52  59 2.52  25 2.52
                            34 2.52
  24  0.001  0.500  0.382-  61 2.44  54 2.46  43 2.49  62 2.50  33 2.50  18 2.50  28 2.51  31 2.52
                            10 2.52
  25  0.081  0.416  0.193-  20 2.49  62 2.49  59 2.49  26 2.49  57 2.51  34 2.51  13 2.51   9 2.52
                            23 2.52  37 2.52  53 2.53  61 2.54
  26  0.167  0.336  0.289-  54 2.46  61 2.48  41 2.49  57 2.49  12 2.49  25 2.49  10 2.50  51 2.51
                            13 2.52  22 2.52  62 2.53  58 2.53
  27  0.752  0.502  0.095-  55 2.46  38 2.50  59 2.50  30 2.50  42 2.51  23 2.52  17 2.52  14 2.53
                            29 2.54
  28  0.751  0.501  0.383-  60 2.43  56 2.46  43 2.49  39 2.50  63 2.51  18 2.51  31 2.51  24 2.51
                            15 2.53
  29  0.584  0.416  0.193-  19 2.49  55 2.49  59 2.50  63 2.50  16 2.51  14 2.51  40 2.51  42 2.52
                            58 2.52  57 2.53  27 2.54  60 2.56
  30  0.001  0.751  0.095-   3 2.50  32 2.50  27 2.50   1 2.50  38 2.50  34 2.51  44 2.51  42 2.52
                            23 2.52
  31  0.001  0.751  0.381-  50 2.46  46 2.47  43 2.48  33 2.50   4 2.50   2 2.50  39 2.51  28 2.51
                            24 2.52
  32  0.249  0.749  0.094-  23 2.48  30 2.50  37 2.50  53 2.50  34 2.51   5 2.51  35 2.51   3 2.52
                            45 2.53
  33  0.249  0.750  0.382-  62 2.45  47 2.46  46 2.48  31 2.50   6 2.50  24 2.50  54 2.51  36 2.51
                             4 2.52
  34  0.084  0.668  0.191-  62 2.47  46 2.49  43 2.49  44 2.50  42 2.50  37 2.50  45 2.50  30 2.51
                            59 2.51  32 2.51  25 2.51  23 2.52
  35  0.500  0.749  0.095-  40 2.50  37 2.50   7 2.50   5 2.51  55 2.51  32 2.51  38 2.51  53 2.51
                            64 2.53
  36  0.499  0.748  0.383-  41 2.46  47 2.47  49 2.48  56 2.50  39 2.51   6 2.51   8 2.51  33 2.51
                            54 2.52
  37  0.333  0.667  0.191-  62 2.47  45 2.50  57 2.50  32 2.50  34 2.50  53 2.50  47 2.50  64 2.50
                            35 2.50  40 2.51  25 2.52  41 2.53
  38  0.751  0.751  0.095-  55 2.47  42 2.50   7 2.50  27 2.50  40 2.50   1 2.50  30 2.50  35 2.51
                            48 2.52
  39  0.750  0.750  0.382-  63 2.45  49 2.46  56 2.47  50 2.47  28 2.50   8 2.50  36 2.51  31 2.51
                             2 2.51
  40  0.583  0.667  0.191-  55 2.47  63 2.48  38 2.50  35 2.50  64 2.50  48 2.51  49 2.51  37 2.51
                            42 2.51  41 2.51  57 2.51  29 2.51
  41  0.417  0.582  0.288-  36 2.46  57 2.49  26 2.49  63 2.49  58 2.50  47 2.50  49 2.51  54 2.51
                            40 2.51  62 2.52  37 2.53  56 2.57
  42  0.834  0.668  0.192-  50 2.48  63 2.48  43 2.48  38 2.50  44 2.50  59 2.50  34 2.50  48 2.51
                            27 2.51  40 2.51  30 2.52  29 2.52
  43  0.916  0.582  0.287-  59 2.47  31 2.48  42 2.48  34 2.49  24 2.49  28 2.49  62 2.50  60 2.51
                            50 2.51  63 2.51  46 2.52  61 2.56
  44  0.083  0.917  0.192-  46 2.47  50 2.48   1 2.49  42 2.50  51 2.50  34 2.50  13 2.50  16 2.51
                            30 2.51   3 2.51  48 2.51  45 2.52
  45  0.334  0.917  0.192-  52 2.47  46 2.48   5 2.49  19 2.50  64 2.50  37 2.50  47 2.50  34 2.50
                            16 2.51   3 2.52  44 2.52  32 2.53
  46  0.167  0.835  0.287-  31 2.47  44 2.47  52 2.47  45 2.48   4 2.48  62 2.48  33 2.48  34 2.49
                            50 2.50  51 2.51  43 2.52  47 2.53
  47  0.417  0.832  0.288-  33 2.46  62 2.46  52 2.46  36 2.47   6 2.48  64 2.49  49 2.49  45 2.50
                            37 2.50  41 2.50  21 2.51  46 2.53
  48  0.832  0.917  0.193-  22 2.47  50 2.47  49 2.48  20 2.49  64 2.50  13 2.51  40 2.51   7 2.51
                            42 2.51  44 2.51  38 2.52   1 2.52
  49  0.666  0.833  0.288-  39 2.46  63 2.46   8 2.47  48 2.48  36 2.48  64 2.49  47 2.49  41 2.51
                            40 2.51  22 2.51  50 2.51  21 2.52
  50  0.916  0.833  0.287-  31 2.46  63 2.47  48 2.47  39 2.47  42 2.48  44 2.48   2 2.48  51 2.49
                            46 2.50  22 2.51  43 2.51  49 2.51
  51  0.162  0.083  0.288-   2 2.44  22 2.46  13 2.47   4 2.47  50 2.49  44 2.50  12 2.51  26 2.51
                            16 2.51  46 2.51  58 2.54  52 2.59
  52  0.417  0.078  0.288-   6 2.45   4 2.46  47 2.46  21 2.47  45 2.47  19 2.47  46 2.47  15 2.51
                            16 2.53  60 2.53  58 2.56  51 2.59
  53  0.248  0.499  0.095-  23 2.48  32 2.50  37 2.50  11 2.50   9 2.51  57 2.51  35 2.51  25 2.53
                            55 2.57
  54  0.246  0.499  0.384-  26 2.46  24 2.46  12 2.50  33 2.51  10 2.51  41 2.51  36 2.52  62 2.52
                            56 2.59
  55  0.506  0.503  0.096-  27 2.46  40 2.47  38 2.47  29 2.49  35 2.51  14 2.51  57 2.55  11 2.55
                            53 2.57
  56  0.506  0.502  0.388-  28 2.46  39 2.47  36 2.50  12 2.52  15 2.53  58 2.54  63 2.56  41 2.57
                            54 2.59
  57  0.331  0.417  0.192-  41 2.49  26 2.49  37 2.50  13 2.50  25 2.51  53 2.51  40 2.51  11 2.52
                            16 2.52  29 2.53  58 2.54  55 2.55
  58  0.418  0.333  0.290-  12 2.45  15 2.47  41 2.50  60 2.51  29 2.52  16 2.53  26 2.53  51 2.54
                            56 2.54  63 2.54  57 2.54  52 2.56
  59  0.834  0.418  0.191-  43 2.47  17 2.48  25 2.49  29 2.50  42 2.50  27 2.50  34 2.51  23 2.52
                            19 2.52  20 2.53  60 2.57  61 2.60
  60  0.667  0.332  0.292-  28 2.43  18 2.44  15 2.45  21 2.47  61 2.51  43 2.51  58 2.51  19 2.53
                            52 2.53  29 2.56  63 2.57  59 2.57
  61  0.915  0.327  0.291-  10 2.42  24 2.44  18 2.45  22 2.46  21 2.47  26 2.48  20 2.51  60 2.51
                            25 2.54  43 2.56  62 2.59  59 2.60
  62  0.169  0.589  0.286-  33 2.45  47 2.46  34 2.47  37 2.47  46 2.48  25 2.49  24 2.50  43 2.50
                            54 2.52  41 2.52  26 2.53  61 2.59
  63  0.669  0.588  0.287-  39 2.45  49 2.46  50 2.47  42 2.48  40 2.48  41 2.49  29 2.50  28 2.51
                            43 2.51  58 2.54  56 2.56  60 2.57
  64  0.583  0.917  0.193-  49 2.49  47 2.49  48 2.50  45 2.50  21 2.50  37 2.50  40 2.50   7 2.51
                             5 2.51  20 2.51  19 2.52  35 2.53
 

IMPORTANT INFORMATION: All symmetrisations will be switched off!
NOSYMM: (Re-)initialisation of all symmetry stuff for point group C_1.

 
 

Automatic generation of k-mesh.
 generate k-points for:    4    4    2
Space group operators:
 irot       det(A)        alpha          n_x          n_y          n_z        tau_x        tau_y        tau_z
    1     1.000000     0.000000     1.000000     0.000000     0.000000     0.000000     0.000000     0.000000
 
 Subroutine IBZKPT returns following result:
 ===========================================
 
 Found     20 irreducible k-points:
 
 Following reciprocal coordinates:
            Coordinates               Weight
  0.000000  0.000000  0.000000      1.000000
  0.250000  0.000000  0.000000      2.000000
  0.500000  0.000000  0.000000      1.000000
  0.000000  0.250000  0.000000      2.000000
  0.250000  0.250000  0.000000      2.000000
  0.500000  0.250000  0.000000      2.000000
 -0.250000  0.250000  0.000000      2.000000
  0.000000  0.500000  0.000000      1.000000
  0.250000  0.500000  0.000000      2.000000
  0.500000  0.500000  0.000000      1.000000
  0.000000  0.000000  0.500000      1.000000
  0.250000  0.000000  0.500000      2.000000
  0.500000  0.000000  0.500000      1.000000
  0.000000  0.250000  0.500000      2.000000
  0.250000  0.250000  0.500000      2.000000
  0.500000  0.250000  0.500000      2.000000
 -0.250000  0.250000  0.500000      2.000000
  0.000000  0.500000  0.500000      1.000000
  0.250000  0.500000  0.500000      2.000000
  0.500000  0.500000  0.500000      1.000000
 
 Following cartesian coordinates:
            Coordinates               Weight
  0.000000  0.000000  0.000000      1.000000
  0.024933  0.014395  0.000000      2.000000
  0.049867  0.028790  0.000000      1.000000
  0.000000  0.028790  0.000000      2.000000
  0.024933  0.043186  0.000000      2.000000
  0.049867  0.057581  0.000000      2.000000
 -0.024933  0.014395  0.000000      2.000000
  0.000000  0.057581  0.000000      1.000000
  0.024933  0.071976  0.000000      2.000000
  0.049867  0.086371  0.000000      1.000000
  0.000000  0.000000  0.023597      1.000000
  0.024933  0.014395  0.023597      2.000000
  0.049867  0.028790  0.023597      1.000000
  0.000000  0.028790  0.023597      2.000000
  0.024933  0.043186  0.023597      2.000000
  0.049867  0.057581  0.023597      2.000000
 -0.024933  0.014395  0.023597      2.000000
  0.000000  0.057581  0.023597      1.000000
  0.024933  0.071976  0.023597      2.000000
  0.049867  0.086371  0.023597      1.000000
 
 TETIRR: Found     96 inequivalent tetrahedra from      192


--------------------------------------------------------------------------------------------------------




 Dimension of arrays:
   k-points           NKPTS =     20   k-points in BZ     NKDIM =     20   number of bands    NBANDS=    414
   number of dos      NEDOS =    301   number of ions     NIONS =     64
   non local maximal  LDIM  =      6   non local SUM 2l+1 LMDIM =     18
   total plane-waves  NPLWV = ******
   max r-space proj   IRMAX =   8439   max aug-charges    IRDMAX=  19969
   dimension x,y,z NGX =    80 NGY =   80 NGZ =  160
   dimension x,y,z NGXF=   160 NGYF=  160 NGZF=  320
   support grid    NGXF=   160 NGYF=  160 NGZF=  320
   ions per type =              50  14
   NGX,Y,Z   is equivalent  to a cutoff of  13.26, 13.26, 12.55 a.u.
   NGXF,Y,Z  is equivalent  to a cutoff of  26.53, 26.53, 25.11 a.u.

 SYSTEM =  SQS-NiFe                                
 POSCAR =  POSCAR                                  

 Startparameter for this run:
   NWRITE =      2    write-flag & timer
   PREC   = accura    normal or accurate (medium, high low for compatibility)
   ISTART =      0    job   : 0-new  1-cont  2-samecut
   ICHARG =     11    charge: 1-file 2-atom 10-const
   ISPIN  =      2    spin polarized calculation?
   LNONCOLLINEAR =      F non collinear calculations
   LSORBIT =      F    spin-orbit coupling
   INIWAV =      1    electr: 0-lowe 1-rand  2-diag
   LASPH  =      F    aspherical Exc in radial PAW
   METAGGA=      F    non-selfconsistent MetaGGA calc.

 Electronic Relaxation 1
   ENCUT  =  520.0 eV  38.22 Ry    6.18 a.u.  18.64 18.64 39.40*2*pi/ulx,y,z
   ENINI  =  520.0     initial cutoff
   ENAUG  =  544.6 eV  augmentation charge cutoff
   NELM   =    200;   NELMIN=  2; NELMDL= -5     # of ELM steps 
   EDIFF  = 0.1E-05   stopping-criterion for ELM
   LREAL  =      T    real-space projection
   NLSPLINE    = F    spline interpolate recip. space projectors
   LCOMPAT=      F    compatible to vasp.4.4
   GGA_COMPAT  = T    GGA compatible to vasp.4.4-vasp.4.6
   LMAXPAW     = -100 max onsite density
   LMAXMIX     =    2 max onsite mixed and CHGCAR
   VOSKOWN=      0    Vosko Wilk Nusair interpolation
   ROPT   =   -0.00025  -0.00025
 Ionic relaxation
   EDIFFG = -.2E-01   stopping-criterion for IOM
   NSW    =      0    number of steps for IOM
   NBLOCK =      1;   KBLOCK =      1    inner block; outer block 
   IBRION =     -1    ionic relax: 0-MD 1-quasi-New 2-CG
   NFREE  =      0    steps in history (QN), initial steepest desc. (CG)
   ISIF   =      2    stress and relaxation
   IWAVPR =     10    prediction:  0-non 1-charg 2-wave 3-comb
   ISYM   =      0    0-nonsym 1-usesym 2-fastsym
   LCORR  =      T    Harris-Foulkes like correction to forces

   POTIM  = 0.5000    time-step for ionic-motion
   TEIN   =    0.0    initial temperature
   TEBEG  =    0.0;   TEEND  =   0.0 temperature during run
   SMASS  =  -3.00    Nose mass-parameter (am)
   estimated Nose-frequenzy (Omega)   =  0.10E-29 period in steps =****** mass=  -0.230E-26a.u.
   SCALEE = 1.0000    scale energy and forces
   NPACO  =    256;   APACO  = 16.0  distance and # of slots for P.C.
   PSTRESS=    0.0 pullay stress

  Mass of Ions in am
   POMASS =  58.69 55.85
  Ionic Valenz
   ZVAL   =  10.00  8.00
  Atomic Wigner-Seitz radii
   RWIGS  =  -1.00 -1.00
  virtual crystal weights 
   VCA    =   1.00  1.00
   NELECT =     612.0000    total number of electrons
   NUPDOWN=      -1.0000    fix difference up-down

 DOS related values:
   EMIN   =  10.00;   EMAX   =-10.00  energy-range for DOS
   EFERMI =   0.00
   ISMEAR =    -5;   SIGMA  =   0.20  broadening in eV -4-tet -1-fermi 0-gaus

 Electronic relaxation 2 (details)
   IALGO  =     68    algorithm
   LDIAG  =      T    sub-space diagonalisation (order eigenvalues)
   LSUBROT=      F    optimize rotation matrix (better conditioning)
   TURBO    =      0    0=normal 1=particle mesh
   IRESTART =      0    0=no restart 2=restart with 2 vectors
   NREBOOT  =      0    no. of reboots
   NMIN     =      0    reboot dimension
   EREF     =   0.00    reference energy to select bands
   IMIX   =      4    mixing-type and parameters
     AMIX     =   0.40;   BMIX     =  1.00
     AMIX_MAG =   1.60;   BMIX_MAG =  1.00
     AMIN     =   0.10
     WC   =   100.;   INIMIX=   1;  MIXPRE=   1;  MAXMIX= -45

 Intra band minimization:
   WEIMIN = 0.0000     energy-eigenvalue tresh-hold
   EBREAK =  0.60E-09  absolut break condition
   DEPER  =   0.30     relativ break condition  

   TIME   =   0.40     timestep for ELM

  volume/ion in A,a.u.               =      28.83       194.53
  Fermi-wavevector in a.u.,A,eV,Ry     =   1.133281  2.141591 17.474320  1.284326
  Thomas-Fermi vector in A             =   2.269984
 
 Write flags
   LWAVE        =      F    write WAVECAR
   LDOWNSAMPLE  =      F    k-point downsampling of WAVECAR
   LCHARG       =      F    write CHGCAR
   LVTOT        =      F    write LOCPOT, total local potential
   LVHAR        =      F    write LOCPOT, Hartree potential only
   LELF         =      F    write electronic localiz. function (ELF)
   LORBIT       =     11    0 simple, 1 ext, 2 COOP (PROOUT), +10 PAW based schemes


 Dipole corrections
   LMONO  =      F    monopole corrections only (constant potential shift)
   LDIPOL =      T    correct potential (dipole corrections)
   IDIPOL =      3    1-x, 2-y, 3-z, 4-all directions 
   EPSILON=  1.0000000 bulk dielectric constant

 Exchange correlation treatment:
   GGA     =    --    GGA type
   LEXCH   =     8    internal setting for exchange type
   VOSKOWN=      0    Vosko Wilk Nusair interpolation
   LHFCALC =     F    Hartree Fock is set to
   LHFONE  =     F    Hartree Fock one center treatment
   AEXX    =    0.0000 exact exchange contribution

 Linear response parameters
   LEPSILON=     F    determine dielectric tensor
   LRPA    =     F    only Hartree local field effects (RPA)
   LNABLA  =     F    use nabla operator in PAW spheres
   LVEL    =     F    velocity operator in full k-point grid
   LINTERFAST=   F  fast interpolation
   KINTER  =     0    interpolate to denser k-point grid
   CSHIFT  =0.1000    complex shift for real part using Kramers Kronig
   OMEGAMAX=  -1.0    maximum frequency
   DEG_THRESHOLD= 0.2000000E-02 threshold for treating states as degnerate
   RTIME   =   -0.100 relaxation time in fs
  (WPLASMAI=    0.000 imaginary part of plasma frequency in eV, 0.658/RTIME)
   DFIELD  = 0.0000000 0.0000000 0.0000000 field for delta impulse in time
 
 Orbital magnetization related:
   ORBITALMAG=     F  switch on orbital magnetization
   LCHIMAG   =     F  perturbation theory with respect to B field
   DQ        =  0.001000  dq finite difference perturbation B field
   LLRAUG    =     F  two centre corrections for induced B field



--------------------------------------------------------------------------------------------------------


 Static calculation
 charge density and potential remain constant during run
 spin polarized calculation
 RMM-DIIS sequential band-by-band and
  variant of blocked Davidson during initial phase
 perform sub-space diagonalisation
    before iterative eigenvector-optimisation
 no mixing
 using additional bands          108
 real space projection scheme for non local part
 use partial core corrections
 calculate Harris-corrections to forces 
   (improved forces if not selfconsistent)
 use gradient corrections 
 WARNING: stress and forces are not correct
  (second derivative of E(xc) not defined)
 use of overlap-Matrix (Vanderbilt PP)
 Fermi weights with tetrahedron method with Bloechl corrections


--------------------------------------------------------------------------------------------------------


  energy-cutoff  :      520.00
  volume of cell :     1844.86
      direct lattice vectors                 reciprocal lattice vectors
    10.026770000  0.000000000  0.000000000     0.099733015  0.057580883  0.000000000
    -5.013385000  8.683437540  0.000000000     0.000000000  0.115161766  0.000000000
     0.000000000  0.000000000 21.188983070     0.000000000  0.000000000  0.047194337

  length of vectors
    10.026770000 10.026770002 21.188983070     0.115161766  0.115161766  0.047194337


 
 k-points in units of 2pi/SCALE and weight: read from INCAR                         
   0.00000000  0.00000000  0.00000000       0.031
   0.02493325  0.01439522  0.00000000       0.062
   0.04986651  0.02879044  0.00000000       0.031
   0.00000000  0.02879044  0.00000000       0.062
   0.02493325  0.04318566  0.00000000       0.062
   0.04986651  0.05758088  0.00000000       0.062
  -0.02493325  0.01439522  0.00000000       0.062
   0.00000000  0.05758088  0.00000000       0.031
   0.02493325  0.07197610  0.00000000       0.062
   0.04986651  0.08637132  0.00000000       0.031
   0.00000000  0.00000000  0.02359717       0.031
   0.02493325  0.01439522  0.02359717       0.062
   0.04986651  0.02879044  0.02359717       0.031
   0.00000000  0.02879044  0.02359717       0.062
   0.02493325  0.04318566  0.02359717       0.062
   0.04986651  0.05758088  0.02359717       0.062
  -0.02493325  0.01439522  0.02359717       0.062
   0.00000000  0.05758088  0.02359717       0.031
   0.02493325  0.07197610  0.02359717       0.062
   0.04986651  0.08637132  0.02359717       0.031
 
 k-points in reciprocal lattice and weights: read from INCAR                         
   0.00000000  0.00000000  0.00000000       0.031
   0.25000000  0.00000000  0.00000000       0.062
   0.50000000  0.00000000  0.00000000       0.031
   0.00000000  0.25000000  0.00000000       0.062
   0.25000000  0.25000000  0.00000000       0.062
   0.50000000  0.25000000  0.00000000       0.062
  -0.25000000  0.25000000  0.00000000       0.062
   0.00000000  0.50000000  0.00000000       0.031
   0.25000000  0.50000000  0.00000000       0.062
   0.50000000  0.50000000  0.00000000       0.031
   0.00000000  0.00000000  0.50000000       0.031
   0.25000000  0.00000000  0.50000000       0.062
   0.50000000  0.00000000  0.50000000       0.031
   0.00000000  0.25000000  0.50000000       0.062
   0.25000000  0.25000000  0.50000000       0.062
   0.50000000  0.25000000  0.50000000       0.062
  -0.25000000  0.25000000  0.50000000       0.062
   0.00000000  0.50000000  0.50000000       0.031
   0.25000000  0.50000000  0.50000000       0.062
   0.50000000  0.50000000  0.50000000       0.031
 
 position of ions in fractional coordinates (direct lattice) 
   0.00052900  0.00053000  0.09593319
   0.00029197  0.00027097  0.38226740
   0.25001300  0.00028700  0.09507516
   0.24877910  0.00159649  0.38182477
   0.49948700  0.99908000  0.09580077
   0.49975913  0.99855374  0.38297659
   0.74930200  0.99919300  0.09588248
   0.74910613  0.99928694  0.38222719
   0.99864000  0.24850700  0.09577903
   0.99815726  0.24670308  0.38422973
   0.25012600  0.25021600  0.09542058
   0.25198788  0.25258835  0.38375587
   0.08288200  0.16633200  0.19236263
   0.50064200  0.24891300  0.09586799
   0.49898930  0.24695485  0.38452591
   0.33293900  0.16685800  0.19242841
   0.75052500  0.25006200  0.09669473
   0.75019684  0.25076038  0.38548852
   0.58230700  0.16720100  0.19338931
   0.83403200  0.16672400  0.19313692
   0.66605724  0.08431116  0.28834005
   0.91655597  0.08286786  0.28779582
   0.00183400  0.50047500  0.09438867
   0.00070152  0.49971888  0.38222824
   0.08092200  0.41609700  0.19263386
   0.16677895  0.33600836  0.28867503
   0.75170200  0.50186900  0.09460572
   0.75051258  0.50075367  0.38283399
   0.58357300  0.41617200  0.19261966
   0.00109100  0.75115300  0.09468309
   0.00064887  0.75111219  0.38114044
   0.24902600  0.74885700  0.09449183
   0.24946129  0.75042573  0.38152233
   0.08375800  0.66810400  0.19148344
   0.49972500  0.74917300  0.09464107
   0.49905315  0.74810061  0.38274740
   0.33297400  0.66727700  0.19107398
   0.75128300  0.75093600  0.09543333
   0.74982840  0.74989337  0.38189576
   0.58298100  0.66668200  0.19119569
   0.41705547  0.58225395  0.28834709
   0.83395900  0.66770600  0.19166513
   0.91626041  0.58243508  0.28667381
   0.08291700  0.91685800  0.19187232
   0.33420600  0.91705400  0.19206792
   0.16659648  0.83533629  0.28666060
   0.41684561  0.83194165  0.28805151
   0.83233100  0.91715000  0.19302274
   0.66612431  0.83292812  0.28794811
   0.91645060  0.83286022  0.28715088
   0.16195759  0.08345717  0.28795980
   0.41692099  0.07778548  0.28826836
   0.24829900  0.49904600  0.09513485
   0.24596970  0.49890350  0.38366682
   0.50648100  0.50259500  0.09587930
   0.50564080  0.50201419  0.38794943
   0.33134100  0.41714300  0.19246231
   0.41764193  0.33324589  0.29024079
   0.83354800  0.41839000  0.19117395
   0.66741332  0.33155684  0.29171160
   0.91502343  0.32699199  0.29147321
   0.16901914  0.58897331  0.28645745
   0.66862474  0.58845996  0.28719658
   0.58310400  0.91651500  0.19252114
 
 position of ions in cartesian coordinates  (Angst):
   0.00264707  0.00460222  2.03272674
   0.00156906  0.00235296  8.09985748
   2.50538401  0.00249215  2.01454596
   2.48644702  0.01386305  8.09047865
  -0.00053142  8.67544878  2.02992089
   0.00483551  8.67087900  8.11488446
   2.50373962  8.67643001  2.03165225
   2.50130470  8.67724575  8.09900539
   8.76727233  2.15789501  2.02946025
   8.77147572  2.14223081  8.14143715
   1.25352673  2.17273501  2.02186505
   1.26030185  2.19333515  8.13139661
  -0.00284760  1.44433353  4.07596851
   3.77192549  2.16142049  2.03134522
   3.76517118  2.14441702  8.14771290
   2.50177938  1.44890102  4.07736232
   6.27168447  2.17139776  2.04886300
   6.26489280  2.17746212  8.16810972
   5.00041537  1.45187944  4.09772282
   7.52679544  1.44773744  4.09237493
   6.25571847  0.73211073  6.10963251
   8.77464748  0.71957786  6.09810075
  -2.49068476  4.34584340  1.99999993
  -2.49824914  4.33927764  8.09902772
  -1.27466818  3.61315231  4.08171560
  -0.01228514  2.91770760  6.11673024
   5.02108055  4.35794811  2.00459900
   5.01474603  4.34826324  8.11186302
   3.76492179  3.61380357  4.08141471
  -3.75487998  6.52259016  2.00623839
  -3.75910856  6.52223578  8.07597830
  -1.25738202  6.50265299  2.00218579
  -1.26088206  6.51627492  8.08407017
  -2.50964037  5.80143935  4.05733937
   1.25473496  6.50539695  2.00534803
   1.25337478  6.49608492  8.11002824
  -0.00666279  5.79425815  4.04866333
   3.76821057  6.52070585  2.02213521
   3.75885268  6.51165228  8.09198284
   2.50308286  5.78909151  4.05124224
   1.26265611  5.05596577  6.10978165
   5.01444784  5.79798335  4.06118919
   6.26716113  5.05753862  6.07432652
  -3.76517246  7.96147918  4.06557934
  -1.24653807  7.96318113  4.06972391
  -2.51743783  7.25359051  6.07404652
   0.00877124  7.22411339  6.10351863
   3.74756545  7.96401474  4.08995557
   2.50328588  7.23267934  6.10132764
   5.01359045  7.23208968  6.08443506
   1.20550860  0.72469509  6.10157526
   3.79040230  0.67544539  6.10811340
  -0.01227277  4.33343477  2.01581073
  -0.03491368  4.33219734  8.12950980
   2.55866626  4.36425229  2.03158486
   2.55315353  4.35920889  8.22025381
   1.23098154  3.62223519  4.07808063
   2.51690968  2.89371985  6.14990728
   6.26024393  3.63306343  4.05078159
   5.02977775  2.87905308  6.18107220
   7.53539268  2.83941456  6.17602087
  -1.25803391  5.11431292  6.06974202
   3.75397010  5.10985533  6.08540351
   1.25180714  7.95850076  4.07932718
 


--------------------------------------------------------------------------------------------------------


 k-point  1 :   0.0000 0.0000 0.0000  plane waves:   49741
 k-point  2 :   0.2500 0.0000 0.0000  plane waves:   49710
 k-point  3 :   0.5000 0.0000 0.0000  plane waves:   49654
 k-point  4 :   0.0000 0.2500 0.0000  plane waves:   49710
 k-point  5 :   0.2500 0.2500 0.0000  plane waves:   49671
 k-point  6 :   0.5000 0.2500 0.0000  plane waves:   49671
 k-point  7 :  -0.2500 0.2500 0.0000  plane waves:   49710
 k-point  8 :   0.0000 0.5000 0.0000  plane waves:   49654
 k-point  9 :   0.2500 0.5000 0.0000  plane waves:   49671
 k-point 10 :   0.5000 0.5000 0.0000  plane waves:   49654
 k-point 11 :   0.0000 0.0000 0.5000  plane waves:   49782
 k-point 12 :   0.2500 0.0000 0.5000  plane waves:   49684
 k-point 13 :   0.5000 0.0000 0.5000  plane waves:   49664
 k-point 14 :   0.0000 0.2500 0.5000  plane waves:   49684
 k-point 15 :   0.2500 0.2500 0.5000  plane waves:   49684
 k-point 16 :   0.5000 0.2500 0.5000  plane waves:   49684
 k-point 17 :  -0.2500 0.2500 0.5000  plane waves:   49684
 k-point 18 :   0.0000 0.5000 0.5000  plane waves:   49664
 k-point 19 :   0.2500 0.5000 0.5000  plane waves:   49684
 k-point 20 :   0.5000 0.5000 0.5000  plane waves:   49664

 maximum and minimum number of plane-waves per node :      2119     2042

 maximum number of plane-waves:     49782
 maximum index in each direction: 
   IXMAX=   18   IYMAX=   18   IZMAX=   39
   IXMIN=  -19   IYMIN=  -19   IZMIN=  -39


 real space projection operators:
  total allocation   :      63943.73 KBytes
  max/ min on nodes  :       3186.14       2381.20


 parallel 3D FFT for wavefunctions:
    minimum data exchange during FFTs selected (reduces bandwidth)
 parallel 3D FFT for charge:
    minimum data exchange during FFTs selected (reduces bandwidth)


 total amount of memory used by VASP MPI-rank0   254426. kBytes
=======================================================================

   base      :      30000. kBytes
   nonlr-proj:      13089. kBytes
   fftplans  :       6403. kBytes
   grid      :      16455. kBytes
   one-center:         93. kBytes
   wavefun   :     188386. kBytes
 
     INWAV:  cpu time    0.0010: real time    0.0006
 initial charge density was supplied:
 number of electron     612.0000062 magnetization      71.5634350
 keeping initial charge density in first step


--------------------------------------------------------------------------------------------------------


 Maximum index for non-local projection operator          767
 Maximum index for augmentation-charges         1116 (set IRDMAX)


--------------------------------------------------------------------------------------------------------


 First call to EWALD:  gamma=   0.145
 Maximum number of real-space cells 4x 4x 2
 Maximum number of reciprocal cells 2x 2x 4

    FEWALD:  cpu time    0.0070: real time    0.0059


--------------------------------------- Iteration      1(   1)  ---------------------------------------


    POTLOK:  cpu time    0.2450: real time    0.2536
    SETDIJ:  cpu time    0.0190: real time    0.0206
     EDDAV:  cpu time  103.5543: real time  104.4091
 BZINTS: Fermi energy: 11.459338;612.000000 electrons
         Band energy:3831.730974;  BLOECHL correction: -0.020766
       DOS:  cpu time    0.1960: real time    0.1965
    --------------------------------------------
      LOOP:  cpu time  104.0142: real time  104.8798

 eigenvalue-minimisations  : 33120
 total energy-change (2. order) : 0.4630519E+04  (-0.2683710E+05)
 number of electron     612.0000062 magnetization      71.5634350
 augmentation part      612.0000062 magnetization      71.5634350

 DIPCOR: dipole corrections for dipol
 direction  3 min pos   250,
 dipolmoment           0.000000      0.000000     -0.032051 electrons x Angstroem
 Tr[quadrupol]    -10379.891689

 energy correction for charged system         0.000000 eV
 dipol+quadrupol energy correction           -0.000050 eV
 added-field ion interaction         -1.591167 eV  (added to PSCEN)


 Free energy of the ion-electron system (eV)
  ---------------------------------------------------
  alpha Z        PSCENC =      1245.54579800
  Ewald energy   TEWEN  =    214171.34398573
  -Hartree energ DENC   =   -274867.49392543
  -exchange      EXHF   =         0.00000000
  -V(xc)+E(xc)   XCENC  =      1591.25955965
  PAW double counting   =     65742.49200889   -69288.28289306
  entropy T*S    EENTRO =         0.00000000
  eigenvalues    EBANDS =      3831.73097402
  atomic energy  EATOM  =     62203.92349997
  Solvation  Ediel_sol  =         0.00000000
  ---------------------------------------------------
  free energy    TOTEN  =      4630.51900777 eV

  energy without entropy =     4630.51900777  energy(sigma->0) =     4630.51900777


--------------------------------------------------------------------------------------------------------




--------------------------------------- Iteration      1(   2)  ---------------------------------------


     EDDAV:  cpu time   98.3930: real time   99.2929
 BZINTS: Fermi energy:  1.577790;612.000000 electrons
         Band energy:-712.635643;  BLOECHL correction: -0.008489
       DOS:  cpu time    0.1970: real time    0.1966
    --------------------------------------------
      LOOP:  cpu time   98.5900: real time   99.4895

 eigenvalue-minimisations  : 33120
 total energy-change (2. order) :-0.4544367E+04  (-0.4279912E+04)
 number of electron     612.0000062 magnetization      71.5634350
 augmentation part      612.0000062 magnetization      71.5634350

 DIPCOR: dipole corrections for dipol
 direction  3 min pos   250,
 dipolmoment           0.000000      0.000000     -0.032051 electrons x Angstroem
 Tr[quadrupol]    -10379.891689

 energy correction for charged system         0.000000 eV
 dipol+quadrupol energy correction           -0.000050 eV
 added-field ion interaction         -1.591167 eV  (added to PSCEN)


 Free energy of the ion-electron system (eV)
  ---------------------------------------------------
  alpha Z        PSCENC =      1245.54579800
  Ewald energy   TEWEN  =    214171.34398573
  -Hartree energ DENC   =   -274867.49392543
  -exchange      EXHF   =         0.00000000
  -V(xc)+E(xc)   XCENC  =      1591.25955965
  PAW double counting   =     65742.49200889   -69288.28289306
  entropy T*S    EENTRO =         0.00000000
  eigenvalues    EBANDS =      -712.63564342
  atomic energy  EATOM  =     62203.92349997
  Solvation  Ediel_sol  =         0.00000000
  ---------------------------------------------------
  free energy    TOTEN  =        86.15239034 eV

  energy without entropy =       86.15239034  energy(sigma->0) =       86.15239034


--------------------------------------------------------------------------------------------------------




--------------------------------------- Iteration      1(   3)  ---------------------------------------


     EDDAV:  cpu time  102.8434: real time  103.7519
 BZINTS: Fermi energy:  0.324584;612.000000 electrons
         Band energy:***********;  BLOECHL correction: -0.118964
       DOS:  cpu time    0.1970: real time    0.1969
    --------------------------------------------
      LOOP:  cpu time  103.0403: real time  103.9487

 eigenvalue-minimisations  : 34047
 total energy-change (2. order) :-0.4375427E+03  (-0.3775193E+03)
 number of electron     612.0000062 magnetization      71.5634350
 augmentation part      612.0000062 magnetization      71.5634350

 DIPCOR: dipole corrections for dipol
 direction  3 min pos   250,
 dipolmoment           0.000000      0.000000     -0.032051 electrons x Angstroem
 Tr[quadrupol]    -10379.891689

 energy correction for charged system         0.000000 eV
 dipol+quadrupol energy correction           -0.000050 eV
 added-field ion interaction         -1.591167 eV  (added to PSCEN)


 Free energy of the ion-electron system (eV)
  ---------------------------------------------------
  alpha Z        PSCENC =      1245.54579800
  Ewald energy   TEWEN  =    214171.34398573
  -Hartree energ DENC   =   -274867.49392543
  -exchange      EXHF   =         0.00000000
  -V(xc)+E(xc)   XCENC  =      1591.25955965
  PAW double counting   =     65742.49200889   -69288.28289306
  entropy T*S    EENTRO =         0.00000000
  eigenvalues    EBANDS =     -1150.17838848
  atomic energy  EATOM  =     62203.92349997
  Solvation  Ediel_sol  =         0.00000000
  ---------------------------------------------------
  free energy    TOTEN  =      -351.39035472 eV

  energy without entropy =     -351.39035472  energy(sigma->0) =     -351.39035472


--------------------------------------------------------------------------------------------------------




--------------------------------------- Iteration      1(   4)  ---------------------------------------


     EDDAV:  cpu time  107.0287: real time  107.4486
 BZINTS: Fermi energy:  0.292704;612.000000 electrons
         Band energy:***********;  BLOECHL correction: -0.116107
       DOS:  cpu time    0.1940: real time    0.1933
    --------------------------------------------
      LOOP:  cpu time  107.2227: real time  107.6419

 eigenvalue-minimisations  : 35352
 total energy-change (2. order) :-0.1852730E+02  (-0.1816448E+02)
 number of electron     612.0000062 magnetization      71.5634350
 augmentation part      612.0000062 magnetization      71.5634350

 DIPCOR: dipole corrections for dipol
 direction  3 min pos   250,
 dipolmoment           0.000000      0.000000     -0.032051 electrons x Angstroem
 Tr[quadrupol]    -10379.891689

 energy correction for charged system         0.000000 eV
 dipol+quadrupol energy correction           -0.000050 eV
 added-field ion interaction         -1.591167 eV  (added to PSCEN)


 Free energy of the ion-electron system (eV)
  ---------------------------------------------------
  alpha Z        PSCENC =      1245.54579800
  Ewald energy   TEWEN  =    214171.34398573
  -Hartree energ DENC   =   -274867.49392543
  -exchange      EXHF   =         0.00000000
  -V(xc)+E(xc)   XCENC  =      1591.25955965
  PAW double counting   =     65742.49200889   -69288.28289306
  entropy T*S    EENTRO =         0.00000000
  eigenvalues    EBANDS =     -1168.70568797
  atomic energy  EATOM  =     62203.92349997
  Solvation  Ediel_sol  =         0.00000000
  ---------------------------------------------------
  free energy    TOTEN  =      -369.91765421 eV

  energy without entropy =     -369.91765421  energy(sigma->0) =     -369.91765421


--------------------------------------------------------------------------------------------------------




--------------------------------------- Iteration      1(   5)  ---------------------------------------


     EDDAV:  cpu time  114.6016: real time  115.1004
 BZINTS: Fermi energy:  0.292255;612.000000 electrons
         Band energy:***********;  BLOECHL correction: -0.116161
       DOS:  cpu time    0.1840: real time    0.1842
    --------------------------------------------
      LOOP:  cpu time  114.7856: real time  115.2847

 eigenvalue-minimisations  : 39420
 total energy-change (2. order) :-0.3625173E+00  (-0.3622409E+00)
 number of electron     612.0000062 magnetization      71.5634350
 augmentation part      612.0000062 magnetization      71.5634350

 DIPCOR: dipole corrections for dipol
 direction  3 min pos   250,
 dipolmoment           0.000000      0.000000     -0.032051 electrons x Angstroem
 Tr[quadrupol]    -10379.891689

 energy correction for charged system         0.000000 eV
 dipol+quadrupol energy correction           -0.000050 eV
 added-field ion interaction         -1.591167 eV  (added to PSCEN)


 Free energy of the ion-electron system (eV)
  ---------------------------------------------------
  alpha Z        PSCENC =      1245.54579800
  Ewald energy   TEWEN  =    214171.34398573
  -Hartree energ DENC   =   -274867.49392543
  -exchange      EXHF   =         0.00000000
  -V(xc)+E(xc)   XCENC  =      1591.25955965
  PAW double counting   =     65742.49200889   -69288.28289306
  entropy T*S    EENTRO =         0.00000000
  eigenvalues    EBANDS =     -1169.06820531
  atomic energy  EATOM  =     62203.92349997
  Solvation  Ediel_sol  =         0.00000000
  ---------------------------------------------------
  free energy    TOTEN  =      -370.28017155 eV

  energy without entropy =     -370.28017155  energy(sigma->0) =     -370.28017155


--------------------------------------------------------------------------------------------------------




--------------------------------------- Iteration      1(   6)  ---------------------------------------


    EDDIAG:  cpu time   15.1027: real time   15.1430
  RMM-DIIS:  cpu time   63.2014: real time   63.4561
    ORTHCH:  cpu time    2.6666: real time    2.6809
 BZINTS: Fermi energy:  0.292231;612.000000 electrons
         Band energy:***********;  BLOECHL correction: -0.116156
       DOS:  cpu time    0.1840: real time    0.1845
    --------------------------------------------
      LOOP:  cpu time   81.1547: real time   81.4644

 eigenvalue-minimisations  : 34435
 total energy-change (2. order) :-0.1233504E-01  (-0.1233084E-01)
 number of electron     612.0000062 magnetization      71.5634350
 augmentation part      612.0000062 magnetization      71.5634350

 DIPCOR: dipole corrections for dipol
 direction  3 min pos   250,
 dipolmoment           0.000000      0.000000     -0.032051 electrons x Angstroem
 Tr[quadrupol]    -10379.891689

 energy correction for charged system         0.000000 eV
 dipol+quadrupol energy correction           -0.000050 eV
 added-field ion interaction         -1.591167 eV  (added to PSCEN)


 Free energy of the ion-electron system (eV)
  ---------------------------------------------------
  alpha Z        PSCENC =      1245.54579800
  Ewald energy   TEWEN  =    214171.34398573
  -Hartree energ DENC   =   -274867.49392543
  -exchange      EXHF   =         0.00000000
  -V(xc)+E(xc)   XCENC  =      1591.25955965
  PAW double counting   =     65742.49200889   -69288.28289306
  entropy T*S    EENTRO =         0.00000000
  eigenvalues    EBANDS =     -1169.08054035
  atomic energy  EATOM  =     62203.92349997
  Solvation  Ediel_sol  =         0.00000000
  ---------------------------------------------------
  free energy    TOTEN  =      -370.29250659 eV

  energy without entropy =     -370.29250659  energy(sigma->0) =     -370.29250659


--------------------------------------------------------------------------------------------------------




--------------------------------------- Iteration      1(   7)  ---------------------------------------


    EDDIAG:  cpu time   16.1335: real time   16.2025
  RMM-DIIS:  cpu time   93.2418: real time   93.6813
    ORTHCH:  cpu time    2.6406: real time    2.6486
 BZINTS: Fermi energy:  0.292225;612.000000 electrons
         Band energy:***********;  BLOECHL correction: -0.116155
       DOS:  cpu time    0.1910: real time    0.1906
    --------------------------------------------
      LOOP:  cpu time  112.2069: real time  112.7229

 eigenvalue-minimisations  : 50531
 total energy-change (2. order) :-0.3840358E-02  (-0.3830771E-02)
 number of electron     612.0000062 magnetization      71.5634350
 augmentation part      612.0000062 magnetization      71.5634350

 DIPCOR: dipole corrections for dipol
 direction  3 min pos   250,
 dipolmoment           0.000000      0.000000     -0.032051 electrons x Angstroem
 Tr[quadrupol]    -10379.891689

 energy correction for charged system         0.000000 eV
 dipol+quadrupol energy correction           -0.000050 eV
 added-field ion interaction         -1.591167 eV  (added to PSCEN)


 Free energy of the ion-electron system (eV)
  ---------------------------------------------------
  alpha Z        PSCENC =      1245.54579800
  Ewald energy   TEWEN  =    214171.34398573
  -Hartree energ DENC   =   -274867.49392543
  -exchange      EXHF   =         0.00000000
  -V(xc)+E(xc)   XCENC  =      1591.25955965
  PAW double counting   =     65742.49200889   -69288.28289306
  entropy T*S    EENTRO =         0.00000000
  eigenvalues    EBANDS =     -1169.08438071
  atomic energy  EATOM  =     62203.92349997
  Solvation  Ediel_sol  =         0.00000000
  ---------------------------------------------------
  free energy    TOTEN  =      -370.29634695 eV

  energy without entropy =     -370.29634695  energy(sigma->0) =     -370.29634695


--------------------------------------------------------------------------------------------------------




--------------------------------------- Iteration      1(   8)  ---------------------------------------


    EDDIAG:  cpu time   15.3757: real time   15.4472
  RMM-DIIS:  cpu time   83.5263: real time   83.8754
    ORTHCH:  cpu time    2.6356: real time    2.6427
 BZINTS: Fermi energy:  0.292225;612.000000 electrons
         Band energy:***********;  BLOECHL correction: -0.116155
       DOS:  cpu time    0.1760: real time    0.1777
    --------------------------------------------
      LOOP:  cpu time  101.7135: real time  102.1430

 eigenvalue-minimisations  : 45250
 total energy-change (2. order) :-0.9095296E-04  (-0.9931582E-04)
 number of electron     612.0000062 magnetization      71.5634350
 augmentation part      612.0000062 magnetization      71.5634350

 DIPCOR: dipole corrections for dipol
 direction  3 min pos   250,
 dipolmoment           0.000000      0.000000     -0.032051 electrons x Angstroem
 Tr[quadrupol]    -10379.891689

 energy correction for charged system         0.000000 eV
 dipol+quadrupol energy correction           -0.000050 eV
 added-field ion interaction         -1.591167 eV  (added to PSCEN)


 Free energy of the ion-electron system (eV)
  ---------------------------------------------------
  alpha Z        PSCENC =      1245.54579800
  Ewald energy   TEWEN  =    214171.34398573
  -Hartree energ DENC   =   -274867.49392543
  -exchange      EXHF   =         0.00000000
  -V(xc)+E(xc)   XCENC  =      1591.25955965
  PAW double counting   =     65742.49200889   -69288.28289306
  entropy T*S    EENTRO =         0.00000000
  eigenvalues    EBANDS =     -1169.08447166
  atomic energy  EATOM  =     62203.92349997
  Solvation  Ediel_sol  =         0.00000000
  ---------------------------------------------------
  free energy    TOTEN  =      -370.29643790 eV

  energy without entropy =     -370.29643790  energy(sigma->0) =     -370.29643790


--------------------------------------------------------------------------------------------------------




--------------------------------------- Iteration      1(   9)  ---------------------------------------


    EDDIAG:  cpu time   15.5786: real time   15.6217
  RMM-DIIS:  cpu time   65.6950: real time   65.9780
    ORTHCH:  cpu time    2.6586: real time    2.6665
 BZINTS: Fermi energy:  0.292225;612.000000 electrons
         Band energy:***********;  BLOECHL correction: -0.116155
       DOS:  cpu time    0.1770: real time    0.1775
    --------------------------------------------
      LOOP:  cpu time   84.1092: real time   84.4437

 eigenvalue-minimisations  : 36169
 total energy-change (2. order) :-0.2180028E-04  (-0.2129027E-04)
 number of electron     612.0000062 magnetization      71.5634350
 augmentation part      612.0000062 magnetization      71.5634350

 DIPCOR: dipole corrections for dipol
 direction  3 min pos   250,
 dipolmoment           0.000000      0.000000     -0.032051 electrons x Angstroem
 Tr[quadrupol]    -10379.891689

 energy correction for charged system         0.000000 eV
 dipol+quadrupol energy correction           -0.000050 eV
 added-field ion interaction         -1.591167 eV  (added to PSCEN)


 Free energy of the ion-electron system (eV)
  ---------------------------------------------------
  alpha Z        PSCENC =      1245.54579800
  Ewald energy   TEWEN  =    214171.34398573
  -Hartree energ DENC   =   -274867.49392543
  -exchange      EXHF   =         0.00000000
  -V(xc)+E(xc)   XCENC  =      1591.25955965
  PAW double counting   =     65742.49200889   -69288.28289306
  entropy T*S    EENTRO =         0.00000000
  eigenvalues    EBANDS =     -1169.08449346
  atomic energy  EATOM  =     62203.92349997
  Solvation  Ediel_sol  =         0.00000000
  ---------------------------------------------------
  free energy    TOTEN  =      -370.29645970 eV

  energy without entropy =     -370.29645970  energy(sigma->0) =     -370.29645970


--------------------------------------------------------------------------------------------------------




--------------------------------------- Iteration      1(  10)  ---------------------------------------


    EDDIAG:  cpu time   16.7135: real time   16.8292
  RMM-DIIS:  cpu time   44.3903: real time   44.5952
    ORTHCH:  cpu time    2.6476: real time    2.6571
 BZINTS: Fermi energy:  0.292225;612.000000 electrons
         Band energy:***********;  BLOECHL correction: -0.116155
       DOS:  cpu time    0.1890: real time    0.1891
    --------------------------------------------
      LOOP:  cpu time   63.9403: real time   64.2707

 eigenvalue-minimisations  : 23407
 total energy-change (2. order) :-0.2535875E-05  (-0.2175313E-05)
 number of electron     612.0000062 magnetization      71.5634350
 augmentation part      612.0000062 magnetization      71.5634350

 DIPCOR: dipole corrections for dipol
 direction  3 min pos   250,
 dipolmoment           0.000000      0.000000     -0.032051 electrons x Angstroem
 Tr[quadrupol]    -10379.891689

 energy correction for charged system         0.000000 eV
 dipol+quadrupol energy correction           -0.000050 eV
 added-field ion interaction         -1.591167 eV  (added to PSCEN)


 Free energy of the ion-electron system (eV)
  ---------------------------------------------------
  alpha Z        PSCENC =      1245.54579800
  Ewald energy   TEWEN  =    214171.34398573
  -Hartree energ DENC   =   -274867.49392543
  -exchange      EXHF   =         0.00000000
  -V(xc)+E(xc)   XCENC  =      1591.25955965
  PAW double counting   =     65742.49200889   -69288.28289306
  entropy T*S    EENTRO =         0.00000000
  eigenvalues    EBANDS =     -1169.08449599
  atomic energy  EATOM  =     62203.92349997
  Solvation  Ediel_sol  =         0.00000000
  ---------------------------------------------------
  free energy    TOTEN  =      -370.29646224 eV

  energy without entropy =     -370.29646224  energy(sigma->0) =     -370.29646224


--------------------------------------------------------------------------------------------------------




--------------------------------------- Iteration      1(  11)  ---------------------------------------


    EDDIAG:  cpu time   15.5126: real time   15.6003
  RMM-DIIS:  cpu time   42.1836: real time   42.3357
    ORTHCH:  cpu time    2.6226: real time    2.6327
 BZINTS: Fermi energy:  0.292225;612.000000 electrons
         Band energy:***********;  BLOECHL correction: -0.116155
       DOS:  cpu time    0.1820: real time    0.1819
    --------------------------------------------
      LOOP:  cpu time   60.5008: real time   60.7506

 eigenvalue-minimisations  : 21490
 total energy-change (2. order) :-0.7273629E-06  (-0.6632410E-06)
 number of electron     612.0000062 magnetization      71.5634350
 augmentation part      612.0000062 magnetization      71.5634350

 DIPCOR: dipole corrections for dipol
 direction  3 min pos   250,
 dipolmoment           0.000000      0.000000     -0.032051 electrons x Angstroem
 Tr[quadrupol]    -10379.891689

 energy correction for charged system         0.000000 eV
 dipol+quadrupol energy correction           -0.000050 eV
 added-field ion interaction         -1.591167 eV  (added to PSCEN)


 Free energy of the ion-electron system (eV)
  ---------------------------------------------------
  alpha Z        PSCENC =      1245.54579800
  Ewald energy   TEWEN  =    214171.34398573
  -Hartree energ DENC   =   -274867.49392543
  -exchange      EXHF   =         0.00000000
  -V(xc)+E(xc)   XCENC  =      1591.25955965
  PAW double counting   =     65742.49200889   -69288.28289306
  entropy T*S    EENTRO =         0.00000000
  eigenvalues    EBANDS =     -1169.08449672
  atomic energy  EATOM  =     62203.92349997
  Solvation  Ediel_sol  =         0.00000000
  ---------------------------------------------------
  free energy    TOTEN  =      -370.29646296 eV

  energy without entropy =     -370.29646296  energy(sigma->0) =     -370.29646296


--------------------------------------------------------------------------------------------------------




 average (electrostatic) potential at core
  the test charge radii are     0.9791  1.0103
  (the norm of the test charge is              1.0000)
       1 -90.7887       2 -90.8267       3 -90.7719       4 -90.9190       5 -90.8041
       6 -90.8307       7 -90.7835       8 -90.7972       9 -90.7717      10 -90.8211
      11 -90.8855      12 -90.9452      13 -91.0554      14 -90.7760      15 -90.9240
      16 -91.0416      17 -90.7896      18 -90.8180      19 -91.0939      20 -91.1231
      21 -91.0949      22 -91.1096      23 -90.8507      24 -90.9238      25 -91.1388
      26 -91.1869      27 -90.8142      28 -90.9137      29 -91.0870      30 -90.7238
      31 -90.8247      32 -90.7696      33 -90.8367      34 -91.1284      35 -90.8308
      36 -90.8796      37 -91.0591      38 -90.8271      39 -90.8354      40 -91.0673
      41 -91.1640      42 -91.1103      43 -91.1181      44 -91.0328      45 -91.0048
      46 -91.1265      47 -91.0696      48 -91.0107      49 -91.0686      50 -91.0853
      51 -49.3608      52 -49.2809      53 -49.3333      54 -49.3044      55 -49.3369
      56 -49.2973      57 -49.2206      58 -49.0826      59 -49.3904      60 -49.1290
      61 -49.2921      62 -49.3723      63 -49.3241      64 -49.4124
 
 
 
 E-fermi :   0.2922     XC(G=0):  -5.9340     alpha+bet : -6.0333


 spin component 1

 k-point     1 :       0.0000    0.0000    0.0000
  band No.  band energies     occupation 
      1      -8.1849      1.00000
      2      -6.8430      1.00000
      3      -6.2882      1.00000
      4      -6.2847      1.00000
      5      -6.2735      1.00000
      6      -6.2584      1.00000
      7      -6.2304      1.00000
      8      -6.2043      1.00000
      9      -5.2672      1.00000
     10      -5.1977      1.00000
     11      -5.1841      1.00000
     12      -5.1689      1.00000
     13      -5.1646      1.00000
     14      -5.1544      1.00000
     15      -5.1446      1.00000
     16      -4.7141      1.00000
     17      -4.5771      1.00000
     18      -4.5409      1.00000
     19      -4.5000      1.00000
     20      -4.4900      1.00000
     21      -4.4326      1.00000
     22      -4.3896      1.00000
     23      -4.1362      1.00000
     24      -4.1181      1.00000
     25      -4.0995      1.00000
     26      -4.0960      1.00000
     27      -4.0787      1.00000
     28      -4.0607      1.00000
     29      -4.0510      1.00000
     30      -4.0243      1.00000
     31      -4.0217      1.00000
     32      -4.0125      1.00000
     33      -3.9973      1.00000
     34      -3.9743      1.00000
     35      -3.9606      1.00000
     36      -3.9525      1.00000
     37      -3.9416      1.00000
     38      -3.9273      1.00000
     39      -3.8995      1.00000
     40      -3.8917      1.00000
     41      -3.8761      1.00000
     42      -3.8594      1.00000
     43      -3.8285      1.00000
     44      -3.8230      1.00000
     45      -3.7985      1.00000
     46      -3.7795      1.00000
     47      -3.7616      1.00000
     48      -3.7542      1.00000
     49      -3.7379      1.00000
     50      -3.7214      1.00000
     51      -3.7123      1.00000
     52      -3.6952      1.00000
     53      -3.6782      1.00000
     54      -3.6577      1.00000
     55      -3.6336      1.00000
     56      -3.6132      1.00000
     57      -3.6122      1.00000
     58      -3.5991      1.00000
     59      -3.5984      1.00000
     60      -3.5686      1.00000
     61      -3.5661      1.00000
     62      -3.4523      1.00000
     63      -3.4267      1.00000
     64      -3.3925      1.00000
     65      -3.3824      1.00000
     66      -3.3625      1.00000
     67      -3.3556      1.00000
     68      -3.3261      1.00000
     69      -3.3115      1.00000
     70      -3.3008      1.00000
     71      -3.2820      1.00000
     72      -3.2683      1.00000
     73      -3.2500      1.00000
     74      -3.2356      1.00000
     75      -3.2251      1.00000
     76      -3.1999      1.00000
     77      -3.1772      1.00000
     78      -3.1565      1.00000
     79      -3.1466      1.00000
     80      -3.1255      1.00000
     81      -3.1107      1.00000
     82      -3.0943      1.00000
     83      -2.9992      1.00000
     84      -2.9956      1.00000
     85      -2.9534      1.00000
     86      -2.9320      1.00000
     87      -2.9271      1.00000
     88      -2.9149      1.00000
     89      -2.8812      1.00000
     90      -2.8778      1.00000
     91      -2.8726      1.00000
     92      -2.8545      1.00000
     93      -2.8430      1.00000
     94      -2.8405      1.00000
     95      -2.8141      1.00000
     96      -2.7991      1.00000
     97      -2.7820      1.00000
     98      -2.7776      1.00000
     99      -2.7632      1.00000
    100      -2.7547      1.00000
    101      -2.7310      1.00000
    102      -2.7286      1.00000
    103      -2.7177      1.00000
    104      -2.6952      1.00000
    105      -2.6890      1.00000
    106      -2.6623      1.00000
    107      -2.6374      1.00000
    108      -2.6176      1.00000
    109      -2.6138      1.00000
    110      -2.5852      1.00000
    111      -2.5707      1.00000
    112      -2.5569      1.00000
    113      -2.5366      1.00000
    114      -2.5026      1.00000
    115      -2.4885      1.00000
    116      -2.4825      1.00000
    117      -2.4617      1.00000
    118      -2.4471      1.00000
    119      -2.4376      1.00000
    120      -2.4226      1.00000
    121      -2.4143      1.00000
    122      -2.3963      1.00000
    123      -2.3833      1.00000
    124      -2.3699      1.00000
    125      -2.3599      1.00000
    126      -2.3429      1.00000
    127      -2.3269      1.00000
    128      -2.3215      1.00000
    129      -2.3040      1.00000
    130      -2.2898      1.00000
    131      -2.2756      1.00000
    132      -2.2510      1.00000
    133      -2.2476      1.00000
    134      -2.2466      1.00000
    135      -2.2227      1.00000
    136      -2.2128      1.00000
    137      -2.2002      1.00000
    138      -2.1752      1.00000
    139      -2.1518      1.00000
    140      -2.1472      1.00000
    141      -2.1388      1.00000
    142      -2.1348      1.00000
    143      -2.1277      1.00000
    144      -2.1133      1.00000
    145      -2.1019      1.00000
    146      -2.0956      1.00000
    147      -2.0902      1.00000
    148      -2.0840      1.00000
    149      -2.0738      1.00000
    150      -2.0680      1.00000
    151      -2.0449      1.00000
    152      -2.0396      1.00000
    153      -2.0252      1.00000
    154      -1.9981      1.00000
    155      -1.9958      1.00000
    156      -1.9834      1.00000
    157      -1.9773      1.00000
    158      -1.9739      1.00000
    159      -1.9634      1.00000
    160      -1.9529      1.00000
    161      -1.9507      1.00000
    162      -1.9357      1.00000
    163      -1.9311      1.00000
    164      -1.9245      1.00000
    165      -1.9145      1.00000
    166      -1.9048      1.00000
    167      -1.8933      1.00000
    168      -1.8913      1.00000
    169      -1.8848      1.00000
    170      -1.8803      1.00000
    171      -1.8762      1.00000
    172      -1.8666      1.00000
    173      -1.8554      1.00000
    174      -1.8471      1.00000
    175      -1.8416      1.00000
    176      -1.8364      1.00000
    177      -1.8282      1.00000
    178      -1.8270      1.00000
    179      -1.8171      1.00000
    180      -1.8128      1.00000
    181      -1.8074      1.00000
    182      -1.8046      1.00000
    183      -1.7972      1.00000
    184      -1.7895      1.00000
    185      -1.7784      1.00000
    186      -1.7744      1.00000
    187      -1.7721      1.00000
    188      -1.7647      1.00000
    189      -1.7581      1.00000
    190      -1.7474      1.00000
    191      -1.7336      1.00000
    192      -1.7319      1.00000
    193      -1.7222      1.00000
    194      -1.7161      1.00000
    195      -1.7056      1.00000
    196      -1.6983      1.00000
    197      -1.6905      1.00000
    198      -1.6821      1.00000
    199      -1.6685      1.00000
    200      -1.6556      1.00000
    201      -1.6496      1.00000
    202      -1.6138      1.00000
    203      -1.6103      1.00000
    204      -1.6015      1.00000
    205      -1.5681      1.00000
    206      -1.5311      1.00000
    207      -1.5277      1.00000
    208      -1.5116      1.00000
    209      -1.4969      1.00000
    210      -1.4885      1.00000
    211      -1.4688      1.00000
    212      -1.4564      1.00000
    213      -1.4514      1.00000
    214      -1.4317      1.00000
    215      -1.4073      1.00000
    216      -1.3993      1.00000
    217      -1.3928      1.00000
    218      -1.3845      1.00000
    219      -1.3794      1.00000
    220      -1.3727      1.00000
    221      -1.3604      1.00000
    222      -1.3507      1.00000
    223      -1.3413      1.00000
    224      -1.3345      1.00000
    225      -1.3053      1.00000
    226      -1.3006      1.00000
    227      -1.2983      1.00000
    228      -1.2863      1.00000
    229      -1.2800      1.00000
    230      -1.2718      1.00000
    231      -1.2322      1.00000
    232      -1.1857      1.00000
    233      -1.1770      1.00000
    234      -1.1637      1.00000
    235      -1.1583      1.00000
    236      -1.1466      1.00000
    237      -1.1434      1.00000
    238      -1.1352      1.00000
    239      -1.1228      1.00000
    240      -1.1147      1.00000
    241      -1.1055      1.00000
    242      -1.1012      1.00000
    243      -1.0957      1.00000
    244      -1.0729      1.00000
    245      -1.0635      1.00000
    246      -1.0497      1.00000
    247      -1.0449      1.00000
    248      -1.0398      1.00000
    249      -1.0178      1.00000
    250      -1.0034      1.00000
    251      -0.9981      1.00000
    252      -0.9915      1.00000
    253      -0.9857      1.00000
    254      -0.9794      1.00000
    255      -0.9744      1.00000
    256      -0.9661      1.00000
    257      -0.9552      1.00000
    258      -0.9536      1.00000
    259      -0.9498      1.00000
    260      -0.9454      1.00000
    261      -0.9410      1.00000
    262      -0.9355      1.00000
    263      -0.9284      1.00000
    264      -0.9216      1.00000
    265      -0.9064      1.00000
    266      -0.9052      1.00000
    267      -0.8913      1.00000
    268      -0.8861      1.00000
    269      -0.8781      1.00000
    270      -0.8736      1.00000
    271      -0.8683      1.00000
    272      -0.8622      1.00000
    273      -0.8543      1.00000
    274      -0.8368      1.00000
    275      -0.8304      1.00000
    276      -0.8247      1.00000
    277      -0.8205      1.00000
    278      -0.8106      1.00000
    279      -0.7987      1.00000
    280      -0.7704      1.00000
    281      -0.7586      1.00000
    282      -0.7284      1.00000
    283      -0.6993      1.00000
    284      -0.6652      1.00000
    285      -0.6443      1.00000
    286      -0.6291      1.00000
    287      -0.6175      1.00000
    288      -0.5943      1.00000
    289      -0.5796      1.00000
    290      -0.5676      1.00000
    291      -0.5596      1.00000
    292      -0.5535      1.00000
    293      -0.5290      1.00000
    294      -0.5203      1.00000
    295      -0.5167      1.00000
    296      -0.5053      1.00000
    297      -0.4905      1.00000
    298      -0.4857      1.00000
    299      -0.4706      1.00000
    300      -0.4632      1.00000
    301      -0.4568      1.00000
    302      -0.4519      1.00000
    303      -0.4426      1.00000
    304      -0.4129      1.00000
    305      -0.3990      1.00000
    306      -0.3946      1.00000
    307      -0.3908      1.00000
    308      -0.3862      1.00000
    309      -0.3827      1.00000
    310      -0.3674      1.00000
    311      -0.3651      1.00000
    312      -0.3635      1.00000
    313      -0.3581      1.00000
    314      -0.3546      1.00000
    315      -0.3540      1.00000
    316      -0.3511      1.00000
    317      -0.3458      1.00000
    318      -0.3436      1.00000
    319      -0.3366      1.00000
    320      -0.3317      1.00000
    321      -0.3096      1.00000
    322      -0.3020      1.00000
    323      -0.2923      1.00000
    324      -0.2821      1.00000
    325      -0.2593      1.00000
    326      -0.2533      1.00000
    327      -0.2520      1.00000
    328      -0.2424      1.00000
    329      -0.2342      1.00000
    330      -0.2221      1.00000
    331      -0.1661      1.00000
    332      -0.1560      1.00000
    333      -0.1506      1.00000
    334      -0.1236      1.00000
    335      -0.1039      1.00000
    336      -0.0934      1.00000
    337       0.0880      1.00000
    338       0.1101      1.00000
    339       0.1479      1.00000
    340       0.1564      1.00000
    341       0.1664      0.72301
    342       0.1796      0.62924
    343       0.5352      0.00000
    344       0.8765      0.00000
    345       0.8854      0.00000
    346       0.8902      0.00000
    347       1.3331      0.00000
    348       1.3351      0.00000
    349       1.3516      0.00000
    350       1.3721      0.00000
    351       1.3937      0.00000
    352       1.4044      0.00000
    353       1.9143      0.00000
    354       1.9301      0.00000
    355       1.9517      0.00000
    356       1.9636      0.00000
    357       1.9681      0.00000
    358       1.9734      0.00000
    359       2.0455      0.00000
    360       2.0697      0.00000
    361       2.1096      0.00000
    362       2.1292      0.00000
    363       2.1342      0.00000
    364       2.1475      0.00000
    365       2.1653      0.00000
    366       2.1714      0.00000
    367       2.2020      0.00000
    368       2.7625      0.00000
    369       2.7802      0.00000
    370       2.8028      0.00000
    371       2.8490      0.00000
    372       2.8643      0.00000
    373       2.8663      0.00000
    374       3.3357      0.00000
    375       3.3631      0.00000
    376       3.3648      0.00000
    377       3.3969      0.00000
    378       3.4009      0.00000
    379       3.4085      0.00000
    380       3.9171      0.00000
    381       3.9694      0.00000
    382       4.0454      0.00000
    383       4.0563      0.00000
    384       4.0684      0.00000
    385       4.0797      0.00000
    386       5.0244      0.00000
    387       5.0911      0.00000
    388       5.5374      0.00000
    389       5.5790      0.00000
    390       5.6059      0.00000
    391       5.6176      0.00000
    392       5.6240      0.00000
    393       5.6335      0.00000
    394       6.3203      0.00000
    395       6.3383      0.00000
    396       6.3836      0.00000
    397       6.4625      0.00000
    398       6.7338      0.00000
    399       6.7604      0.00000
    400       6.7877      0.00000
[...]
   0.106E+02 -.234E+02 0.286E+04   -.107E+02 0.231E+02 -.286E+04   0.864E-02 -.465E-01 -.136E+01   0.172E+00 0.301E+00 0.553E+00
   0.208E+02 -.369E+02 -.291E+04   -.209E+02 0.368E+02 0.291E+04   -.381E-01 -.161E+00 0.156E+01   0.146E+00 0.186E+00 -.181E+00
   0.166E+01 -.588E+02 0.862E+03   -.175E+01 0.584E+02 -.864E+03   0.934E-01 -.907E-01 -.238E+00   0.267E-01 0.521E+00 0.228E+01
   0.516E+02 -.607E+02 0.907E+03   -.518E+02 0.606E+02 -.909E+03   -.706E-01 0.232E-01 -.198E+00   0.185E+00 0.205E+00 0.208E+01
   0.489E+02 -.684E+02 -.953E+03   -.490E+02 0.675E+02 0.952E+03   -.408E-01 0.964E-02 0.203E+00   0.206E+00 0.904E+00 0.335E+00
   -.130E+02 -.637E+02 -.976E+03   0.128E+02 0.630E+02 0.976E+03   0.113E+00 0.135E+00 0.224E+00   0.648E-01 0.529E+00 0.179E+00
   -.229E+02 0.289E+02 0.290E+04   0.233E+02 -.284E+02 -.290E+04   -.393E-01 -.200E-01 -.143E+01   -.429E+00 -.517E+00 0.377E+00
   -.390E+02 0.860E+01 -.286E+04   0.396E+02 -.782E+01 0.286E+04   -.121E+00 0.160E-01 0.118E+01   -.532E+00 -.779E+00 0.111E+00
   -.165E+02 -.210E+02 0.905E+03   0.167E+02 0.217E+02 -.907E+03   -.105E+00 -.968E-02 -.324E+00   -.526E-01 -.701E+00 0.204E+01
   -.525E+02 -.584E+02 -.993E+03   0.529E+02 0.591E+02 0.992E+03   -.623E-01 -.989E-02 0.364E+00   -.297E+00 -.729E+00 -.154E-01
   0.311E+02 0.371E+02 0.289E+04   -.312E+02 -.371E+02 -.289E+04   0.494E-02 -.121E-01 -.144E+01   0.158E+00 -.935E-01 0.588E+00
   0.536E+02 0.283E+02 -.285E+04   -.541E+02 -.277E+02 0.285E+04   0.584E-01 -.543E-01 0.127E+01   0.497E+00 -.479E+00 -.418E-01
   0.360E+02 0.120E+02 0.859E+03   -.364E+02 -.118E+02 -.861E+03   0.165E+00 0.633E-01 -.602E+00   0.170E+00 -.250E+00 0.203E+01
   0.407E+00 0.252E+02 0.293E+04   0.131E+00 -.252E+02 -.293E+04   -.175E-01 -.267E-01 -.131E+01   -.525E+00 -.202E-01 0.455E+00
   -.825E+01 0.285E+02 -.291E+04   0.855E+01 -.282E+02 0.291E+04   0.444E-01 -.102E+00 0.147E+01   -.347E+00 -.197E+00 0.341E+00
   -.442E+02 0.386E+02 0.293E+04   0.446E+02 -.386E+02 -.293E+04   0.335E-01 0.122E+00 -.130E+01   -.328E+00 -.116E+00 0.287E+00
   -.189E+02 0.552E+02 -.290E+04   0.194E+02 -.553E+02 0.290E+04   -.508E-01 0.159E+00 0.108E+01   -.520E+00 -.553E-01 0.378E+00
   -.189E+02 0.780E+02 0.939E+03   0.194E+02 -.777E+02 -.941E+03   0.565E-01 -.219E+00 -.929E-01   -.519E+00 -.149E+00 0.194E+01
   0.121E+01 0.702E+02 0.291E+04   -.168E+01 -.702E+02 -.290E+04   0.298E-01 0.149E+00 -.120E+01   0.434E+00 -.818E-01 0.279E+00
   0.768E+01 0.947E+02 -.293E+04   -.797E+01 -.953E+02 0.292E+04   0.297E-01 0.197E+00 0.102E+01   0.261E+00 0.387E+00 0.469E+00
   -.417E+02 0.711E+02 0.973E+03   0.416E+02 -.708E+02 -.975E+03   0.170E-01 -.918E-01 -.142E+00   0.111E+00 -.305E+00 0.188E+01
   0.415E+02 0.468E+02 0.292E+04   -.419E+02 -.468E+02 -.292E+04   -.597E-01 0.341E-01 -.134E+01   0.419E+00 0.453E-01 0.560E+00
   0.188E+02 0.747E+02 -.291E+04   -.194E+02 -.750E+02 0.290E+04   0.708E-02 0.656E-01 0.984E+00   0.597E+00 0.234E+00 0.256E+00
   0.384E+02 0.912E+02 0.965E+03   -.389E+02 -.910E+02 -.966E+03   -.262E-01 -.105E+00 -.240E+00   0.450E+00 -.190E+00 0.170E+01
   -.262E+02 0.110E+03 -.101E+04   0.262E+02 -.109E+03 0.101E+04   -.964E-01 0.127E+00 0.187E+00   0.114E+00 -.687E+00 -.282E+00
   0.228E+02 0.951E+02 0.934E+03   -.227E+02 -.949E+02 -.936E+03   -.296E-01 -.196E+00 -.128E+00   -.561E-01 -.615E-01 0.172E+01
   0.548E+01 0.118E+03 -.938E+03   -.520E+01 -.118E+03 0.937E+03   -.361E-01 0.208E+00 0.300E+00   -.230E+00 -.565E+00 0.337E+00
   -.208E+02 -.370E+02 0.932E+03   0.212E+02 0.367E+02 -.934E+03   0.132E-01 0.831E-02 -.996E-01   -.330E+00 0.395E+00 0.187E+01
   -.330E+02 -.285E+02 0.926E+03   0.333E+02 0.278E+02 -.929E+03   0.152E-01 0.103E-01 -.118E+00   -.333E+00 0.625E+00 0.217E+01
   -.278E+02 -.206E+02 -.966E+03   0.281E+02 0.203E+02 0.965E+03   0.970E-01 -.178E-01 0.344E+00   -.408E+00 0.350E+00 -.303E-01
   0.809E+01 0.184E+02 -.959E+03   -.786E+01 -.191E+02 0.959E+03   -.122E+00 0.551E-01 0.276E+00   -.110E+00 0.562E+00 -.154E+00
   0.374E+02 0.970E+01 0.946E+03   -.377E+02 -.101E+02 -.948E+03   -.602E-02 0.747E-02 -.231E+00   0.344E+00 0.396E+00 0.185E+01
   0.237E+02 0.563E+02 -.958E+03   -.242E+02 -.568E+02 0.958E+03   0.280E-01 -.130E+00 0.228E+00   0.532E+00 0.613E+00 -.268E-01
   -.320E+01 0.251E+02 -.974E+03   0.323E+01 -.254E+02 0.974E+03   -.950E-02 0.865E-02 0.301E+00   -.166E-01 0.337E+00 0.631E-01
   -.698E+02 -.792E+02 -.784E+03   0.702E+02 0.791E+02 0.784E+03   -.160E+00 -.257E+00 0.288E+00   -.225E+00 0.317E+00 -.165E+00
   0.384E+02 -.933E+02 -.783E+03   -.385E+02 0.930E+02 0.782E+03   0.113E+00 -.308E+00 0.290E+00   0.385E-02 0.596E+00 -.458E-02
   -.605E+02 0.156E+02 0.231E+04   0.607E+02 -.152E+02 -.231E+04   -.288E+00 -.908E-03 -.279E+01   0.144E-01 -.376E+00 0.403E+00
   -.357E+02 0.156E+01 -.232E+04   0.362E+02 -.879E+00 0.231E+04   0.333E-01 -.164E-02 0.254E+01   -.485E+00 -.654E+00 0.276E-01
   0.592E+02 0.304E+02 0.230E+04   -.595E+02 -.303E+02 -.230E+04   0.254E+00 -.516E-01 -.277E+01   0.207E+00 -.911E-01 0.553E+00
   0.282E+02 0.329E+02 -.233E+04   -.287E+02 -.324E+02 0.233E+04   -.651E-01 -.951E-01 0.327E+01   0.493E+00 -.335E+00 0.656E-01
   -.323E+02 -.715E+01 0.755E+03   0.323E+02 0.776E+01 -.756E+03   -.539E-01 -.246E+00 -.456E-01   0.667E-01 -.457E+00 0.165E+01
   -.243E+02 -.202E+02 -.810E+03   0.246E+02 0.205E+02 0.810E+03   -.475E+00 0.857E-01 0.290E+00   0.186E+00 -.414E+00 -.193E+00
   0.117E+02 0.268E+02 0.711E+03   -.116E+02 -.267E+02 -.712E+03   0.526E-01 0.171E+00 -.470E+00   -.179E+00 -.307E+00 0.154E+01
   0.453E+02 -.264E+02 -.797E+03   -.455E+02 0.264E+02 0.796E+03   0.934E-01 0.154E+00 0.428E+00   0.140E+00 -.179E+00 0.247E+00
   0.277E+02 -.647E+02 -.798E+03   -.279E+02 0.651E+02 0.797E+03   0.293E+00 0.164E-01 0.242E+00   -.830E-01 -.363E+00 0.375E+00
   -.155E+02 0.701E+02 -.776E+03   0.160E+02 -.696E+02 0.776E+03   -.235E+00 0.919E-01 0.188E+00   -.298E+00 -.605E+00 0.967E-01
   0.291E+02 0.119E+03 -.785E+03   -.298E+02 -.119E+03 0.785E+03   0.299E+00 0.337E+00 0.178E+00   0.411E+00 -.372E+00 -.518E-01
   0.132E+02 0.391E+01 0.761E+03   -.134E+02 -.438E+01 -.763E+03   -.435E-01 0.954E-01 -.319E+00   0.253E+00 0.386E+00 0.161E+01
 -----------------------------------------------------------------------------------------------
   0.360E+00 -.574E+00 -.417E+02   0.128E-12 -.718E-12 0.227E-11   -.205E+00 -.335E+00 0.344E+00   -.156E+00 0.924E+00 0.412E+02
 
 
 POSITION                                       TOTAL-FORCE (eV/Angst)
 -----------------------------------------------------------------------------------
      0.00265      0.00460      2.03273        -0.003036     -0.011590      0.276785
      0.00157      0.00235      8.09986        -0.007024     -0.001960      0.019108
      2.50538      0.00249      2.01455         0.024828     -0.051788      0.324616
      2.48645      0.01386      8.09048         0.024890     -0.012232      0.026435
     -0.00053      8.67545      2.02992         0.017520     -0.074873      0.210594
      0.00484      8.67088      8.11488        -0.015695      0.006927     -0.007523
      2.50374      8.67643      2.03165        -0.011151     -0.094518      0.237143
      2.50130      8.67725      8.09901         0.008766      0.002826      0.008732
      8.76727      2.15790      2.02946        -0.013280      0.047040      0.235402
      8.77148      2.14223      8.14144         0.001065      0.022520     -0.003126
      1.25353      2.17274      2.02187         0.008781      0.120441      0.257969
      1.26030      2.19334      8.13140         0.012922     -0.000028     -0.009335
     -0.00285      1.44433      4.07597         0.021043      0.094226     -0.272251
      3.77193      2.16142      2.03135        -0.018732      0.092808      0.255939
      3.76517      2.14442      8.14771        -0.009115      0.006808      0.021956
      2.50178      1.44890      4.07736         0.008270      0.059704     -0.046668
      6.27168      2.17140      2.04886         0.027402     -0.007649      0.135997
      6.26489      2.17746      8.16811         0.013184     -0.026377     -0.008980
      5.00042      1.45188      4.09772         0.037763      0.054853     -0.226381
      7.52680      1.44774      4.09237        -0.087935      0.122821     -0.243423
      6.25572      0.73211      6.10963        -0.000361     -0.010995     -0.011298
      8.77465      0.71958      6.09810        -0.003921      0.004123      0.011210
     -2.49068      4.34584      2.00000        -0.072993     -0.028519      0.357210
     -2.49825      4.33928      8.09903         0.018417      0.014819      0.003681
     -1.27467      3.61315      4.08172         0.040457      0.006089     -0.175443
     -0.01229      2.91771      6.11673         0.016179     -0.002182      0.018526
      5.02108      4.35795      2.00460         0.070445     -0.049376      0.267765
      5.01475      4.34826      8.11186        -0.008253     -0.003568      0.012742
      3.76492      3.61380      4.08141        -0.037699     -0.021522     -0.155388
     -3.75488      6.52259      2.00624        -0.003856     -0.079361      0.175150
     -3.75911      6.52224      8.07598        -0.002981      0.004948      0.013901
     -1.25738      6.50265      2.00219         0.067161      0.087161      0.271037
     -1.26088      6.51627      8.08407        -0.017277     -0.024351      0.039526
     -2.50964      5.80144      4.05734         0.019645     -0.043722     -0.317817
      1.25473      6.50540      2.00535        -0.015782      0.034432      0.110627
      1.25337      6.49608      8.11003         0.002886     -0.017042      0.020805
     -0.00666      5.79426      4.04866         0.076840     -0.059680     -0.141982
      3.76821      6.52071      2.02214        -0.026412      0.119095      0.288270
      3.75885      6.51165      8.09198         0.020446     -0.027342      0.008660
      2.50308      5.78909      4.05124        -0.081212     -0.090322     -0.192287
      1.26266      5.05597      6.10978        -0.001685     -0.053226      0.005001
      5.01445      5.79798      4.06119        -0.013427     -0.076603     -0.286157
      6.26716      5.05754      6.07433         0.010156     -0.007162      0.035132
     -3.76517      7.96148      4.06558         0.027798      0.073092     -0.248262
     -1.24654      7.96318      4.06972         0.015544      0.004597     -0.236629
     -2.51744      7.25359      6.07405         0.007157     -0.001524      0.036659
      0.00877      7.22411      6.10352        -0.006631      0.008510      0.009789
      3.74757      7.96401      4.08996        -0.023475     -0.009624     -0.283456
      2.50329      7.23268      6.10133        -0.009774      0.004059      0.017308
      5.01359      7.23209      6.08444         0.005047     -0.022396      0.009774
      1.20551      0.72470      6.10158         0.009611     -0.010988      0.005576
      3.79040      0.67545      6.10811         0.027911      0.001336      0.009741
     -0.01227      4.33343      2.01581        -0.111110      0.046500      0.067614
     -0.03491      4.33220      8.12951         0.029220      0.021085     -0.018627
      2.55867      4.36425      2.03158         0.074365     -0.082728     -0.035942
      2.55315      4.35921      8.22025        -0.029564      0.023263      0.001176
      1.23098      3.62224      4.07808         0.011790     -0.089072     -0.226438
      2.51691      2.89372      6.14991        -0.025672      0.001249      0.028078
      6.26024      3.63306      4.05078        -0.008904     -0.049433     -0.443144
      5.02978      2.87905      6.18107         0.001640      0.022576      0.006568
      7.53539      2.83941      6.17602        -0.025485      0.012196      0.005591
     -1.25803      5.11431      6.06974         0.000561     -0.002197      0.037884
      3.75397      5.10986      6.08540        -0.021667      0.009039      0.043469
      1.25181      7.95850      4.07933        -0.045603      0.014808     -0.338586
 -----------------------------------------------------------------------------------
    total drift:                               -0.000796      0.015074     -0.133839


--------------------------------------------------------------------------------------------------------



  FREE ENERGIE OF THE ION-ELECTRON SYSTEM (eV)
  ---------------------------------------------------
  free  energy   TOTEN  =      -370.29646296 eV

  energy  without entropy=     -370.29646296  energy(sigma->0) =     -370.29646296
 


--------------------------------------------------------------------------------------------------------


    POTLOK:  cpu time    0.2800: real time    0.2815


--------------------------------------------------------------------------------------------------------


     LOOP+:  cpu time 1129.2723: real time 1135.7892
    4ORBIT:  cpu time    0.0000: real time    0.0000
 


 total charge     
 
# of ion       s       p       d       tot
------------------------------------------
    1        0.482   0.366   8.313   9.161
    2        0.494   0.381   8.320   9.195
    3        0.480   0.362   8.317   9.159
    4        0.497   0.388   8.319   9.204
    5        0.486   0.368   8.327   9.181
    6        0.490   0.378   8.323   9.191
    7        0.486   0.368   8.320   9.174
    8        0.484   0.375   8.316   9.175
    9        0.484   0.372   8.318   9.174
   10        0.495   0.387   8.314   9.196
   11        0.493   0.382   8.316   9.191
   12        0.503   0.398   8.315   9.216
   13        0.493   0.492   8.313   9.299
   14        0.482   0.370   8.319   9.171
   15        0.504   0.397   8.312   9.213
   16        0.495   0.492   8.309   9.297
   17        0.486   0.371   8.304   9.161
   18        0.495   0.381   8.310   9.187
   19        0.498   0.502   8.320   9.320
   20        0.497   0.499   8.311   9.306
   21        0.508   0.514   8.328   9.351
   22        0.503   0.509   8.317   9.329
   23        0.489   0.375   8.321   9.185
   24        0.501   0.395   8.311   9.207
   25        0.503   0.505   8.314   9.322
   26        0.511   0.524   8.316   9.351
   27        0.490   0.375   8.321   9.186
   28        0.501   0.394   8.316   9.212
   29        0.503   0.505   8.313   9.321
   30        0.481   0.364   8.308   9.153
   31        0.483   0.377   8.308   9.168
   32        0.485   0.371   8.336   9.191
   33        0.496   0.389   8.327   9.212
   34        0.495   0.497   8.316   9.308
   35        0.492   0.382   8.322   9.196
   36        0.494   0.390   8.320   9.204
   37        0.500   0.504   8.328   9.332
   38        0.487   0.378   8.319   9.183
   39        0.501   0.393   8.318   9.211
   40        0.500   0.505   8.326   9.331
   41        0.508   0.518   8.324   9.350
   42        0.494   0.496   8.309   9.299
   43        0.506   0.509   8.330   9.346
   44        0.490   0.487   8.308   9.285
   45        0.492   0.489   8.318   9.300
   46        0.505   0.511   8.332   9.348
   47        0.505   0.511   8.339   9.355
   48        0.489   0.486   8.315   9.290
   49        0.501   0.505   8.334   9.339
   50        0.502   0.507   8.329   9.338
   51        0.476   0.511   6.159   7.146
   52        0.478   0.516   6.174   7.168
   53        0.467   0.396   6.121   6.984
   54        0.466   0.399   6.137   7.003
   55        0.469   0.399   6.126   6.994
   56        0.464   0.388   6.135   6.987
   57        0.469   0.498   6.174   7.141
   58        0.474   0.509   6.200   7.183
   59        0.467   0.497   6.140   7.104
   60        0.479   0.516   6.197   7.192
   61        0.476   0.515   6.173   7.164
   62        0.475   0.512   6.162   7.149
   63        0.476   0.513   6.168   7.158
   64        0.466   0.498   6.132   7.096
--------------------------------------------------
tot         31.343  28.362 502.136 561.842
 


 magnetization (x)
 
# of ion       s       p       d       tot
------------------------------------------
    1       -0.006  -0.019   0.675   0.650
    2       -0.010  -0.019   0.677   0.648
    3       -0.006  -0.019   0.668   0.643
    4       -0.012  -0.024   0.725   0.689
    5       -0.010  -0.022   0.675   0.643
    6       -0.009  -0.020   0.682   0.652
    7       -0.011  -0.021   0.670   0.638
    8       -0.005  -0.019   0.670   0.645
    9       -0.010  -0.024   0.660   0.627
   10       -0.013  -0.027   0.681   0.641
   11       -0.019  -0.033   0.721   0.669
   12       -0.019  -0.033   0.735   0.683
   13       -0.011  -0.030   0.693   0.651
   14       -0.010  -0.025   0.664   0.630
   15       -0.018  -0.030   0.732   0.685
   16       -0.017  -0.036   0.697   0.644
   17       -0.010  -0.023   0.682   0.649
   18       -0.015  -0.025   0.697   0.656
   19       -0.016  -0.039   0.707   0.653
   20       -0.014  -0.036   0.727   0.677
   21       -0.018  -0.034   0.687   0.635
   22       -0.012  -0.030   0.700   0.657
   23       -0.010  -0.024   0.698   0.663
   24       -0.016  -0.029   0.733   0.687
   25       -0.020  -0.042   0.736   0.674
   26       -0.022  -0.047   0.747   0.678
   27       -0.012  -0.024   0.682   0.646
   28       -0.016  -0.027   0.721   0.678
   29       -0.022  -0.045   0.715   0.648
   30       -0.010  -0.021   0.649   0.618
   31       -0.005  -0.021   0.685   0.659
   32       -0.009  -0.024   0.644   0.611
   33       -0.014  -0.027   0.672   0.631
   34       -0.011  -0.032   0.722   0.679
   35       -0.017  -0.032   0.690   0.640
   36       -0.014  -0.030   0.696   0.653
   37       -0.017  -0.042   0.683   0.624
   38       -0.008  -0.024   0.682   0.650
   39       -0.016  -0.026   0.673   0.631
   40       -0.017  -0.042   0.690   0.632
   41       -0.023  -0.049   0.732   0.661
   42       -0.011  -0.032   0.722   0.679
   43       -0.020  -0.036   0.701   0.645
   44       -0.009  -0.028   0.685   0.647
   45       -0.012  -0.028   0.660   0.620
   46       -0.015  -0.031   0.693   0.648
   47       -0.015  -0.032   0.660   0.613
   48       -0.009  -0.026   0.666   0.631
   49       -0.013  -0.031   0.668   0.624
   50       -0.012  -0.027   0.675   0.635
   51        0.005  -0.010   2.794   2.789
   52        0.003  -0.015   2.748   2.736
   53        0.014  -0.010   2.896   2.900
   54        0.014  -0.011   2.871   2.874
   55        0.013  -0.010   2.890   2.893
   56        0.013  -0.010   2.885   2.888
   57        0.003  -0.018   2.738   2.722
   58       -0.005  -0.029   2.661   2.626
   59        0.006  -0.012   2.831   2.826
   60       -0.003  -0.023   2.670   2.643
   61        0.003  -0.016   2.755   2.742
   62        0.005  -0.012   2.795   2.788
   63        0.003  -0.016   2.774   2.761
   64        0.010  -0.009   2.844   2.844
--------------------------------------------------
tot         -0.581  -1.669  73.755  71.506
 
 BZINTS: Fermi energy:  0.292225;612.000000 electrons
         Band energy:***********;  BLOECHL correction: -0.116155

 total amount of memory used by VASP MPI-rank0   254426. kBytes
=======================================================================

   base      :      30000. kBytes
   nonlr-proj:      13089. kBytes
   fftplans  :       6403. kBytes
   grid      :      16455. kBytes
   one-center:         93. kBytes
   wavefun   :     188386. kBytes
 
  
  
 General timing and accounting informations for this job:
 ========================================================
  
                  Total CPU time used (sec):     1244.278
                            User time (sec):     1226.559
                          System time (sec):       17.719
                         Elapsed time (sec):     1261.650
  
                   Maximum memory used (kb):      354300.
                   Average memory used (kb):           0.
  
                          Minor page faults:        20452
                          Major page faults:            0
                 Voluntary context switches:         8044
