  68  68   1   0
  0.2670197E+02  0.9967380E-09  0.9967380E-09  0.2110375E-08  0.5000000E-15
  1.000000000000000E-004
  CAR 
 SQS-NiFe                                
     10.54136696    -20.58946449  301      0.46407468      1.00000000
    -20.589  0.0000E+00  0.0000E+00  0.0000E+00  0.0000E+00
    -20.486  0.0000E+00  0.0000E+00  0.0000E+00  0.0000E+00
    -20.382  0.0000E+00  0.0000E+00  0.0000E+00  0.0000E+00
    -20.278 -0.3201E-31  0.0000E+00 -0.3321E-32  0.0000E+00
    -20.174 -0.1961E-27  0.0000E+00 -0.2035E-28  0.0000E+00
    -20.071 -0.5486E-24 -0.9688E-33 -0.5695E-25 -0.1005E-33
    -19.967 -0.8923E-21 -0.6904E-28 -0.9265E-22 -0.7165E-29
    -19.863 -0.8430E-18 -0.2067E-24 -0.8757E-19 -0.2146E-25
    -19.759 -0.4489E-15 -0.3600E-21 -0.4667E-16 -0.3738E-22
    -19.656 -0.1418E-12 -0.3642E-18 -0.1476E-13 -0.3783E-19
    -19.552 -0.2584E-10 -0.2132E-15 -0.2697E-11 -0.2216E-16
    -19.448 -0.2708E-08 -0.7034E-13 -0.2837E-09 -0.7322E-14
    -19.344 -0.1621E-06 -0.1374E-10 -0.1711E-07 -0.1434E-11
    -19.240 -0.5492E-05 -0.1545E-08 -0.5870E-06 -0.1618E-09
    -19.137 -0.1034E-03 -0.9934E-07 -0.1132E-04 -0.1047E-07
    -19.033 -0.1042E-02 -0.3620E-05 -0.1195E-03 -0.3861E-06
    -18.929 -0.5100E-02 -0.7354E-04 -0.6487E-03 -0.8017E-05
    -18.825 -0.7495E-02 -0.8052E-03 -0.1426E-02 -0.9158E-04
    -18.722  0.2664E-01 -0.4367E-02  0.1338E-02 -0.5447E-03
    -18.618  0.1165E+00 -0.8157E-02  0.1343E-01 -0.1391E-02
    -18.514  0.1637E+00  0.1863E-01  0.3041E-01  0.5422E-03
    -18.410  0.9551E-01  0.1043E+00  0.4033E-01  0.1136E-01
    -18.307  0.1371E-01  0.1645E+00  0.4175E-01  0.2843E-01
    -18.203 -0.8344E-02  0.1080E+00  0.4088E-01  0.3964E-01
    -18.099 -0.3880E-02  0.2091E-01  0.4048E-01  0.4181E-01
    -17.995 -0.6670E-03 -0.8013E-02  0.4041E-01  0.4098E-01
    -17.891 -0.5747E-04 -0.4583E-02  0.4040E-01  0.4050E-01
    -17.788 -0.2679E-05 -0.8711E-03  0.4040E-01  0.4041E-01
    -17.684 -0.6976E-07 -0.8152E-04  0.4040E-01  0.4040E-01
    -17.580 -0.1030E-08 -0.4104E-05  0.4040E-01  0.4040E-01
    -17.476 -0.8705E-11 -0.1151E-06  0.4040E-01  0.4040E-01
    -17.373 -0.4232E-13 -0.1827E-08  0.4040E-01  0.4040E-01
    -17.269 -0.1201E-15 -0.1659E-10  0.4040E-01  0.4040E-01
    -17.165  0.0000E+00 -0.8660E-13  0.4040E-01  0.4040E-01
    -17.061  0.0000E+00 -0.2666E-15  0.4040E-01  0.4040E-01
    -16.958  0.0000E+00  0.0000E+00  0.4040E-01  0.4040E-01
    -16.854  0.0000E+00  0.0000E+00  0.4040E-01  0.4040E-01
    -16.750  0.0000E+00  0.0000E+00  0.4040E-01  0.4040E-01
    -16.646  0.0000E+00  0.0000E+00  0.4040E-01  0.4040E-01
    -16.542  0.0000E+00  0.0000E+00  0.4040E-01  0.4040E-01
    -16.439  0.0000E+00  0.0000E+00  0.4040E-01  0.4040E-01
    -16.335  0.0000E+00  0.0000E+00  0.4040E-01  0.4040E-01
    -16.231  0.0000E+00  0.0000E+00  0.4040E-01  0.4040E-01
    -16.127  0.0000E+00  0.0000E+00  0.4040E-01  0.4040E-01
    -16.024  0.0000E+00  0.0000E+00  0.4040E-01  0.4040E-01
    -15.920  0.0000E+00  0.0000E+00  0.4040E-01  0.4040E-01
    -15.816  0.0000E+00  0.0000E+00  0.4040E-01  0.4040E-01
    -15.712  0.0000E+00  0.0000E+00  0.4040E-01  0.4040E-01
    -15.609  0.0000E+00  0.0000E+00  0.4040E-01  0.4040E-01
    -15.505  0.0000E+00  0.0000E+00  0.4040E-01  0.4040E-01
    -15.401  0.0000E+00  0.0000E+00  0.4040E-01  0.4040E-01
    -15.297  0.0000E+00  0.0000E+00  0.4040E-01  0.4040E-01
    -15.193  0.0000E+00  0.0000E+00  0.4040E-01  0.4040E-01
    -15.090  0.0000E+00  0.0000E+00  0.4040E-01  0.4040E-01
    -14.986  0.0000E+00  0.0000E+00  0.4040E-01  0.4040E-01
    -14.882  0.0000E+00  0.0000E+00  0.4040E-01  0.4040E-01
    -14.778  0.0000E+00  0.0000E+00  0.4040E-01  0.4040E-01
    -14.675  0.0000E+00  0.0000E+00  0.4040E-01  0.4040E-01
    -14.571  0.0000E+00  0.0000E+00  0.4040E-01  0.4040E-01
    -14.467  0.0000E+00  0.0000E+00  0.4040E-01  0.4040E-01
    -14.363  0.0000E+00  0.0000E+00  0.4040E-01  0.4040E-01
    -14.260  0.0000E+00  0.0000E+00  0.4040E-01  0.4040E-01
    -14.156  0.0000E+00  0.0000E+00  0.4040E-01  0.4040E-01
    -14.052  0.0000E+00  0.0000E+00  0.4040E-01  0.4040E-01
    -13.948  0.0000E+00  0.0000E+00  0.4040E-01  0.4040E-01
    -13.844  0.0000E+00  0.0000E+00  0.4040E-01  0.4040E-01
    -13.741  0.0000E+00  0.0000E+00  0.4040E-01  0.4040E-01
    -13.637  0.0000E+00  0.0000E+00  0.4040E-01  0.4040E-01
    -13.533  0.0000E+00  0.0000E+00  0.4040E-01  0.4040E-01
    -13.429  0.0000E+00  0.0000E+00  0.4040E-01  0.4040E-01
    -13.326  0.0000E+00  0.0000E+00  0.4040E-01  0.4040E-01
    -13.222  0.0000E+00  0.0000E+00  0.4040E-01  0.4040E-01
    -13.118  0.0000E+00  0.0000E+00  0.4040E-01  0.4040E-01
    -13.014  0.0000E+00  0.0000E+00  0.4040E-01  0.4040E-01
    -12.911  0.0000E+00  0.0000E+00  0.4040E-01  0.4040E-01
    -12.807  0.0000E+00  0.0000E+00  0.4040E-01  0.4040E-01
    -12.703  0.0000E+00  0.0000E+00  0.4040E-01  0.4040E-01
    -12.599  0.0000E+00  0.0000E+00  0.4040E-01  0.4040E-01
    -12.495  0.0000E+00  0.0000E+00  0.4040E-01  0.4040E-01
    -12.392  0.0000E+00  0.0000E+00  0.4040E-01  0.4040E-01
    -12.288  0.0000E+00  0.0000E+00  0.4040E-01  0.4040E-01
    -12.184  0.0000E+00  0.0000E+00  0.4040E-01  0.4040E-01
    -12.080  0.0000E+00  0.0000E+00  0.4040E-01  0.4040E-01
    -11.977  0.0000E+00  0.0000E+00  0.4040E-01  0.4040E-01
    -11.873  0.0000E+00  0.0000E+00  0.4040E-01  0.4040E-01
    -11.769  0.0000E+00  0.0000E+00  0.4040E-01  0.4040E-01
    -11.665  0.0000E+00  0.0000E+00  0.4040E-01  0.4040E-01
    -11.562  0.0000E+00  0.0000E+00  0.4040E-01  0.4040E-01
    -11.458  0.0000E+00  0.0000E+00  0.4040E-01  0.4040E-01
    -11.354  0.0000E+00  0.0000E+00  0.4040E-01  0.4040E-01
    -11.250  0.0000E+00  0.0000E+00  0.4040E-01  0.4040E-01
    -11.146  0.0000E+00  0.0000E+00  0.4040E-01  0.4040E-01
    -11.043  0.0000E+00  0.0000E+00  0.4040E-01  0.4040E-01
    -10.939  0.0000E+00  0.0000E+00  0.4040E-01  0.4040E-01
    -10.835  0.0000E+00  0.0000E+00  0.4040E-01  0.4040E-01
    -10.731  0.0000E+00  0.0000E+00  0.4040E-01  0.4040E-01
    -10.628  0.0000E+00  0.0000E+00  0.4040E-01  0.4040E-01
    -10.524  0.0000E+00  0.0000E+00  0.4040E-01  0.4040E-01
    -10.420  0.0000E+00  0.0000E+00  0.4040E-01  0.4040E-01
    -10.316  0.0000E+00  0.0000E+00  0.4040E-01  0.4040E-01
    -10.213  0.0000E+00  0.0000E+00  0.4040E-01  0.4040E-01
    -10.109  0.0000E+00  0.0000E+00  0.4040E-01  0.4040E-01
    -10.005  0.0000E+00  0.0000E+00  0.4040E-01  0.4040E-01
     -9.901  0.0000E+00  0.0000E+00  0.4040E-01  0.4040E-01
     -9.797  0.0000E+00 -0.1764E-32  0.4040E-01  0.4040E-01
     -9.694 -0.9246E-30 -0.8315E-29  0.4040E-01  0.4040E-01
     -9.590 -0.2925E-26 -0.2277E-25  0.4040E-01  0.4040E-01
     -9.486 -0.5377E-23 -0.3623E-22  0.4040E-01  0.4040E-01
     -9.382 -0.5737E-20 -0.3344E-19  0.4040E-01  0.4040E-01
     -9.279 -0.3549E-17 -0.1729E-16  0.4040E-01  0.4040E-01
     -9.175 -0.1230E-14 -0.5351E-14  0.4040E-01  0.4040E-01
     -9.071 -0.2528E-12 -0.9496E-12  0.4040E-01  0.4040E-01
     -8.967 -0.2987E-10 -0.9677E-10  0.4040E-01  0.4040E-01
     -8.864 -0.2019E-08 -0.5629E-08  0.4040E-01  0.4040E-01
     -8.760 -0.7734E-07 -0.1850E-06  0.4040E-01  0.4040E-01
     -8.656 -0.1655E-05 -0.3380E-05  0.4040E-01  0.4040E-01
     -8.552 -0.1927E-04 -0.3320E-04  0.4040E-01  0.4040E-01
     -8.448 -0.1153E-03 -0.1632E-03  0.4039E-01  0.4038E-01
     -8.345 -0.3033E-03 -0.3191E-03  0.4036E-01  0.4035E-01
     -8.241 -0.8159E-04  0.1647E-03  0.4035E-01  0.4037E-01
     -8.137  0.1342E-02  0.2019E-02  0.4049E-01  0.4058E-01
     -8.033  0.5329E-02  0.7284E-02  0.4104E-01  0.4133E-01
     -7.930  0.1578E-01  0.1926E-01  0.4268E-01  0.4333E-01
     -7.826  0.2678E-01  0.2729E-01  0.4546E-01  0.4616E-01
     -7.722  0.2101E-01  0.1696E-01  0.4764E-01  0.4792E-01
     -7.618  0.5835E-02  0.3635E-02  0.4824E-01  0.4830E-01
     -7.515  0.5908E-02  0.8702E-02  0.4886E-01  0.4920E-01
     -7.411  0.2133E-01  0.2469E-01  0.5107E-01  0.5177E-01
     -7.307  0.3242E-01  0.3300E-01  0.5444E-01  0.5519E-01
     -7.203  0.3378E-01  0.3278E-01  0.5794E-01  0.5859E-01
     -7.099  0.2665E-01  0.2389E-01  0.6071E-01  0.6107E-01
     -6.996  0.1064E-01  0.7612E-02  0.6181E-01  0.6186E-01
     -6.892 -0.2284E-02 -0.3317E-02  0.6157E-01  0.6152E-01
     -6.788 -0.3096E-02 -0.2341E-02  0.6125E-01  0.6127E-01
     -6.684  0.1696E-01  0.1938E-01  0.6301E-01  0.6328E-01
     -6.581  0.5562E-01  0.5781E-01  0.6878E-01  0.6928E-01
     -6.477  0.7380E-01  0.7270E-01  0.7644E-01  0.7683E-01
     -6.373  0.5260E-01  0.4895E-01  0.8190E-01  0.8191E-01
     -6.269  0.3084E-01  0.2755E-01  0.8510E-01  0.8477E-01
     -6.166  0.3614E-01  0.3424E-01  0.8885E-01  0.8832E-01
     -6.062  0.4917E-01  0.4755E-01  0.9395E-01  0.9325E-01
     -5.958  0.4747E-01  0.4578E-01  0.9888E-01  0.9800E-01
     -5.854  0.3931E-01  0.3266E-01  0.1030E+00  0.1014E+00
     -5.750  0.4865E-01  0.2711E-01  0.1080E+00  0.1042E+00
     -5.647  0.6973E-01  0.4913E-01  0.1152E+00  0.1093E+00
     -5.543  0.7430E-01  0.7870E-01  0.1230E+00  0.1175E+00
     -5.439  0.7545E-01  0.8584E-01  0.1308E+00  0.1264E+00
     -5.335  0.9122E-01  0.7690E-01  0.1402E+00  0.1344E+00
     -5.232  0.1346E+00  0.5663E-01  0.1542E+00  0.1402E+00
     -5.128  0.2223E+00  0.4955E-01  0.1773E+00  0.1454E+00
     -5.024  0.2816E+00  0.9056E-01  0.2065E+00  0.1548E+00
     -4.920  0.2323E+00  0.1837E+00  0.2306E+00  0.1738E+00
     -4.817  0.1367E+00  0.2763E+00  0.2448E+00  0.2025E+00
     -4.713  0.8752E-01  0.2647E+00  0.2539E+00  0.2300E+00
     -4.609  0.9695E-01  0.1595E+00  0.2639E+00  0.2465E+00
     -4.505  0.1364E+00  0.9067E-01  0.2781E+00  0.2559E+00
     -4.401  0.1701E+00  0.1044E+00  0.2957E+00  0.2668E+00
     -4.298  0.1831E+00  0.1488E+00  0.3147E+00  0.2822E+00
     -4.194  0.2049E+00  0.1599E+00  0.3360E+00  0.2988E+00
     -4.090  0.2353E+00  0.1462E+00  0.3604E+00  0.3140E+00
     -3.986  0.2626E+00  0.1518E+00  0.3877E+00  0.3297E+00
     -3.883  0.2949E+00  0.1331E+00  0.4183E+00  0.3436E+00
     -3.779  0.3179E+00  0.1113E+00  0.4512E+00  0.3551E+00
     -3.675  0.3163E+00  0.1855E+00  0.4841E+00  0.3743E+00
     -3.571  0.3435E+00  0.3107E+00  0.5197E+00  0.4066E+00
     -3.468  0.4922E+00  0.3457E+00  0.5708E+00  0.4425E+00
     -3.364  0.6607E+00  0.2756E+00  0.6394E+00  0.4711E+00
     -3.260  0.6608E+00  0.2016E+00  0.7079E+00  0.4920E+00
     -3.156  0.5468E+00  0.2016E+00  0.7647E+00  0.5129E+00
     -3.052  0.4707E+00  0.3185E+00  0.8135E+00  0.5459E+00
     -2.949  0.4829E+00  0.4827E+00  0.8636E+00  0.5960E+00
     -2.845  0.5537E+00  0.5385E+00  0.9211E+00  0.6519E+00
     -2.741  0.5876E+00  0.4953E+00  0.9821E+00  0.7033E+00
     -2.637  0.5754E+00  0.4700E+00  0.1042E+01  0.7521E+00
     -2.534  0.5954E+00  0.4743E+00  0.1104E+01  0.8013E+00
     -2.430  0.6215E+00  0.4829E+00  0.1168E+01  0.8514E+00
     -2.326  0.6350E+00  0.4943E+00  0.1234E+01  0.9027E+00
     -2.222  0.6743E+00  0.5080E+00  0.1304E+01  0.9554E+00
     -2.119  0.7195E+00  0.5317E+00  0.1379E+01  0.1011E+01
     -2.015  0.7917E+00  0.5813E+00  0.1461E+01  0.1071E+01
     -1.911  0.9399E+00  0.6183E+00  0.1558E+01  0.1135E+01
     -1.807  0.1104E+01  0.5928E+00  0.1673E+01  0.1197E+01
     -1.703  0.1160E+01  0.5593E+00  0.1793E+01  0.1255E+01
     -1.600  0.1096E+01  0.5933E+00  0.1907E+01  0.1316E+01
     -1.496  0.9510E+00  0.6638E+00  0.2006E+01  0.1385E+01
     -1.392  0.7437E+00  0.7378E+00  0.2083E+01  0.1462E+01
     -1.288  0.6475E+00  0.8449E+00  0.2150E+01  0.1549E+01
     -1.185  0.7614E+00  0.9895E+00  0.2229E+01  0.1652E+01
     -1.081  0.9056E+00  0.1098E+01  0.2323E+01  0.1766E+01
     -0.977  0.9319E+00  0.1119E+01  0.2420E+01  0.1882E+01
     -0.873  0.8882E+00  0.1021E+01  0.2512E+01  0.1988E+01
     -0.770  0.9161E+00  0.7975E+00  0.2607E+01  0.2071E+01
     -0.666  0.1030E+01  0.6444E+00  0.2714E+01  0.2138E+01
     -0.562  0.1069E+01  0.7035E+00  0.2825E+01  0.2211E+01
     -0.458  0.1070E+01  0.8226E+00  0.2936E+01  0.2296E+01
     -0.354  0.1249E+01  0.8678E+00  0.3065E+01  0.2386E+01
     -0.251  0.1436E+01  0.8532E+00  0.3214E+01  0.2475E+01
     -0.147  0.1273E+01  0.8444E+00  0.3346E+01  0.2562E+01
     -0.043  0.8157E+00  0.8908E+00  0.3431E+01  0.2655E+01
      0.061  0.4226E+00  0.9447E+00  0.3475E+01  0.2753E+01
      0.164  0.2649E+00  0.9298E+00  0.3502E+01  0.2849E+01
      0.268  0.2505E+00  0.9013E+00  0.3528E+01  0.2943E+01
      0.372  0.2389E+00  0.9501E+00  0.3553E+01  0.3041E+01
      0.476  0.1716E+00  0.1052E+01  0.3571E+01  0.3150E+01
      0.580  0.1093E+00  0.1109E+01  0.3582E+01  0.3266E+01
      0.683  0.1147E+00  0.1015E+01  0.3594E+01  0.3371E+01
      0.787  0.1234E+00  0.7793E+00  0.3607E+01  0.3452E+01
      0.891  0.7999E-01  0.5297E+00  0.3615E+01  0.3507E+01
      0.995  0.5825E-01  0.3567E+00  0.3621E+01  0.3544E+01
      1.098  0.9751E-01  0.2578E+00  0.3631E+01  0.3571E+01
      1.202  0.1125E+00  0.2038E+00  0.3643E+01  0.3592E+01
      1.306  0.8506E-01  0.1578E+00  0.3652E+01  0.3608E+01
      1.410  0.1010E+00  0.1024E+00  0.3662E+01  0.3619E+01
      1.513  0.1613E+00  0.9052E-01  0.3679E+01  0.3628E+01
      1.617  0.1854E+00  0.1126E+00  0.3698E+01  0.3640E+01
      1.721  0.1398E+00  0.1057E+00  0.3713E+01  0.3651E+01
      1.825  0.7124E-01  0.9979E-01  0.3720E+01  0.3661E+01
      1.929  0.3807E-01  0.1243E+00  0.3724E+01  0.3674E+01
      2.032  0.4144E-01  0.1536E+00  0.3729E+01  0.3690E+01
      2.136  0.6713E-01  0.1658E+00  0.3736E+01  0.3707E+01
      2.240  0.1138E+00  0.1367E+00  0.3747E+01  0.3721E+01
      2.344  0.1503E+00  0.7637E-01  0.3763E+01  0.3729E+01
      2.447  0.1304E+00  0.5044E-01  0.3776E+01  0.3734E+01
      2.551  0.8424E-01  0.8766E-01  0.3785E+01  0.3744E+01
      2.655  0.9078E-01  0.1383E+00  0.3795E+01  0.3758E+01
      2.759  0.1303E+00  0.1485E+00  0.3808E+01  0.3773E+01
      2.862  0.1211E+00  0.1226E+00  0.3821E+01  0.3786E+01
      2.966  0.7262E-01  0.1122E+00  0.3828E+01  0.3798E+01
      3.070  0.5914E-01  0.1225E+00  0.3834E+01  0.3810E+01
      3.174  0.9678E-01  0.1141E+00  0.3844E+01  0.3822E+01
      3.278  0.1327E+00  0.8972E-01  0.3858E+01  0.3832E+01
      3.381  0.1050E+00  0.8772E-01  0.3869E+01  0.3841E+01
      3.485  0.4760E-01  0.9921E-01  0.3874E+01  0.3851E+01
      3.589  0.4983E-01  0.9457E-01  0.3879E+01  0.3861E+01
      3.693  0.1005E+00  0.7318E-01  0.3890E+01  0.3868E+01
      3.796  0.1203E+00  0.5426E-01  0.3902E+01  0.3874E+01
      3.900  0.9383E-01  0.8398E-01  0.3912E+01  0.3883E+01
      4.004  0.7758E-01  0.1352E+00  0.3920E+01  0.3897E+01
      4.108  0.9503E-01  0.1230E+00  0.3930E+01  0.3909E+01
      4.211  0.1081E+00  0.8272E-01  0.3941E+01  0.3918E+01
      4.315  0.1094E+00  0.8837E-01  0.3952E+01  0.3927E+01
      4.419  0.1116E+00  0.1119E+00  0.3964E+01  0.3939E+01
      4.523  0.9206E-01  0.1158E+00  0.3973E+01  0.3951E+01
      4.627  0.5431E-01  0.1088E+00  0.3979E+01  0.3962E+01
      4.730  0.4528E-01  0.9335E-01  0.3984E+01  0.3972E+01
      4.834  0.6087E-01  0.6477E-01  0.3990E+01  0.3979E+01
      4.938  0.7203E-01  0.5083E-01  0.3998E+01  0.3984E+01
      5.042  0.6618E-01  0.6125E-01  0.4004E+01  0.3990E+01
      5.145  0.4830E-01  0.7209E-01  0.4009E+01  0.3998E+01
      5.249  0.5134E-01  0.6545E-01  0.4015E+01  0.4004E+01
      5.353  0.7600E-01  0.4847E-01  0.4023E+01  0.4010E+01
      5.457  0.1014E+00  0.5723E-01  0.4033E+01  0.4015E+01
      5.560  0.1115E+00  0.8854E-01  0.4045E+01  0.4025E+01
      5.664  0.9713E-01  0.1063E+00  0.4055E+01  0.4036E+01
      5.768  0.8934E-01  0.1032E+00  0.4064E+01  0.4046E+01
      5.872  0.9853E-01  0.9712E-01  0.4074E+01  0.4056E+01
      5.976  0.9959E-01  0.1008E+00  0.4085E+01  0.4067E+01
      6.079  0.7560E-01  0.1036E+00  0.4093E+01  0.4078E+01
      6.183  0.4679E-01  0.1033E+00  0.4097E+01  0.4088E+01
      6.287  0.3890E-01  0.9266E-01  0.4101E+01  0.4098E+01
      6.391  0.5601E-01  0.6102E-01  0.4107E+01  0.4104E+01
      6.494  0.8043E-01  0.2996E-01  0.4116E+01  0.4107E+01
      6.598  0.9269E-01  0.3865E-01  0.4125E+01  0.4111E+01
      6.702  0.1257E+00  0.8969E-01  0.4138E+01  0.4121E+01
      6.806  0.1772E+00  0.1314E+00  0.4157E+01  0.4134E+01
      6.909  0.1763E+00  0.1342E+00  0.4175E+01  0.4148E+01
      7.013  0.1337E+00  0.1222E+00  0.4189E+01  0.4161E+01
      7.117  0.1157E+00  0.1198E+00  0.4201E+01  0.4173E+01
      7.221  0.1397E+00  0.1360E+00  0.4215E+01  0.4188E+01
      7.325  0.1490E+00  0.1708E+00  0.4231E+01  0.4205E+01
      7.428  0.1298E+00  0.1911E+00  0.4244E+01  0.4225E+01
      7.532  0.1526E+00  0.1614E+00  0.4260E+01  0.4242E+01
      7.636  0.1924E+00  0.1213E+00  0.4280E+01  0.4254E+01
      7.740  0.1780E+00  0.1344E+00  0.4298E+01  0.4268E+01
      7.843  0.1393E+00  0.1800E+00  0.4313E+01  0.4287E+01
      7.947  0.1370E+00  0.1908E+00  0.4327E+01  0.4307E+01
      8.051  0.1496E+00  0.1776E+00  0.4343E+01  0.4325E+01
      8.155  0.1160E+00  0.1717E+00  0.4355E+01  0.4343E+01
      8.258  0.5391E-01  0.1278E+00  0.4360E+01  0.4356E+01
      8.362  0.1889E-01  0.4771E-01  0.4362E+01  0.4361E+01
      8.466  0.9994E-02  0.5716E-02  0.4363E+01  0.4362E+01
      8.570  0.4249E-02  0.6844E-02  0.4364E+01  0.4363E+01
      8.674 -0.1485E-03  0.8509E-02  0.4364E+01  0.4363E+01
      8.777 -0.7826E-03  0.2606E-02  0.4364E+01  0.4364E+01
      8.881 -0.2632E-03 -0.5593E-03  0.4364E+01  0.4364E+01
      8.985 -0.3902E-04 -0.4836E-03  0.4364E+01  0.4364E+01
      9.089 -0.2997E-05 -0.1084E-03  0.4364E+01  0.4364E+01
      9.192 -0.1259E-06 -0.1156E-04  0.4364E+01  0.4364E+01
      9.296 -0.2964E-08 -0.6554E-06  0.4364E+01  0.4364E+01
      9.400 -0.3966E-10 -0.2057E-07  0.4364E+01  0.4364E+01
      9.504 -0.3038E-12 -0.3644E-09  0.4364E+01  0.4364E+01
      9.607 -0.1342E-14 -0.3682E-11  0.4364E+01  0.4364E+01
      9.711  0.0000E+00 -0.2135E-13  0.4364E+01  0.4364E+01
      9.815  0.0000E+00 -0.7205E-16  0.4364E+01  0.4364E+01
      9.919  0.0000E+00  0.0000E+00  0.4364E+01  0.4364E+01
     10.023  0.0000E+00  0.0000E+00  0.4364E+01  0.4364E+01
     10.126  0.0000E+00  0.0000E+00  0.4364E+01  0.4364E+01
     10.230  0.0000E+00  0.0000E+00  0.4364E+01  0.4364E+01
     10.334  0.0000E+00  0.0000E+00  0.4364E+01  0.4364E+01
     10.438  0.0000E+00  0.0000E+00  0.4364E+01  0.4364E+01
     10.541  0.0000E+00  0.0000E+00  0.4364E+01  0.4364E+01
     10.54136696    -20.58946449  301      0.46407468      1.00000000
    -20.589  0.0000E+00  0.0000E+00  0.0000E+00  0.0000E+00  0.0000E+00  0.0000E+00
    -20.486  0.0000E+00  0.0000E+00  0.0000E+00  0.0000E+00  0.0000E+00  0.0000E+00
    -20.382  0.0000E+00  0.0000E+00  0.0000E+00  0.0000E+00  0.0000E+00  0.0000E+00
    -20.278 -0.7629E-40  0.0000E+00 -0.7195E-40  0.0000E+00 -0.1210E-40  0.0000E+00
    -20.174 -0.4276E-36  0.0000E+00 -0.3968E-36  0.0000E+00 -0.7484E-37  0.0000E+00
    -20.071 -0.1184E-32 -0.6328E-41 -0.1101E-32 -0.2885E-41 -0.2091E-33 -0.6658E-42
    -19.967 -0.1906E-29 -0.1876E-36 -0.1777E-29 -0.1640E-36 -0.3396E-30 -0.3183E-37
    -19.863 -0.1782E-26 -0.5554E-33 -0.1665E-26 -0.4869E-33 -0.3205E-27 -0.9517E-34
    -19.759 -0.9392E-24 -0.9566E-30 -0.8773E-24 -0.8407E-30 -0.1707E-24 -0.1655E-30
    -19.656 -0.2937E-21 -0.9572E-27 -0.2754E-21 -0.8432E-27 -0.5381E-22 -0.1672E-27
    -19.552 -0.5299E-19 -0.5520E-24 -0.4976E-19 -0.4890E-24 -0.9799E-20 -0.9768E-25
    -19.448 -0.5497E-17 -0.1809E-21 -0.5169E-17 -0.1601E-21 -0.1026E-17 -0.3224E-22
    -19.344 -0.3259E-15 -0.3498E-19 -0.3068E-15 -0.3100E-19 -0.6141E-16 -0.6296E-20
    -19.240 -0.1093E-13 -0.3891E-17 -0.1030E-13 -0.3453E-17 -0.2080E-14 -0.7073E-18
    -19.137 -0.2037E-12 -0.2476E-15 -0.1921E-12 -0.2201E-15 -0.3915E-13 -0.4547E-16
    -19.033 -0.2031E-11 -0.8929E-14 -0.1916E-11 -0.7946E-14 -0.3947E-12 -0.1657E-14
    -18.929 -0.9810E-11 -0.1795E-12 -0.9257E-11 -0.1599E-12 -0.1932E-11 -0.3366E-13
    -18.825 -0.1394E-10 -0.1944E-11 -0.1315E-10 -0.1733E-11 -0.2844E-11 -0.3687E-12
    -18.722  0.5231E-10 -0.1040E-10  0.4938E-10 -0.9279E-11  0.1008E-10 -0.2001E-11
    -18.618  0.2229E-09 -0.1891E-10  0.2103E-09 -0.1688E-10  0.4415E-10 -0.3744E-11
    -18.514  0.3092E-09  0.4566E-10  0.2915E-09  0.4073E-10  0.6211E-10  0.8515E-11
    -18.410  0.1780E-09  0.2471E-09  0.1676E-09  0.2204E-09  0.3628E-10  0.4780E-10
    -18.307  0.2457E-10  0.3843E-09  0.2304E-10  0.3427E-09  0.5230E-11  0.7551E-10
    -18.203 -0.1579E-10  0.2490E-09 -0.1489E-10  0.2219E-09 -0.3163E-11  0.4966E-10
    -18.099 -0.7199E-11  0.4685E-10 -0.6775E-11  0.4165E-10 -0.1475E-11  0.9657E-11
    -17.995 -0.1225E-11 -0.1884E-10 -0.1151E-11 -0.1682E-10 -0.2539E-12 -0.3672E-11
    -17.891 -0.1047E-12 -0.1052E-10 -0.9824E-13 -0.9367E-11 -0.2191E-13 -0.2109E-11
    -17.788 -0.4848E-14 -0.1978E-11 -0.4540E-14 -0.1759E-11 -0.1023E-14 -0.4016E-12
    -17.684 -0.1254E-15 -0.1836E-12 -0.1172E-15 -0.1631E-12 -0.2667E-16 -0.3766E-13
    -17.580 -0.1840E-17 -0.9177E-14 -0.1717E-17 -0.8140E-14 -0.3944E-18 -0.1899E-14
    -17.476 -0.1546E-19 -0.2556E-15 -0.1440E-19 -0.2264E-15 -0.3338E-20 -0.5334E-16
    -17.373 -0.7472E-22 -0.4033E-17 -0.6943E-22 -0.3566E-17 -0.1625E-22 -0.8485E-18
    -17.269 -0.2158E-24 -0.3641E-19 -0.1966E-24 -0.3213E-19 -0.4641E-25 -0.7718E-20
    -17.165  0.0000E+00 -0.1891E-21  0.0000E+00 -0.1665E-21  0.0000E+00 -0.4037E-22
    -17.061  0.0000E+00 -0.5795E-24  0.0000E+00 -0.5098E-24  0.0000E+00 -0.1235E-24
    -16.958  0.0000E+00  0.0000E+00  0.0000E+00  0.0000E+00  0.0000E+00  0.0000E+00
    -16.854  0.0000E+00  0.0000E+00  0.0000E+00  0.0000E+00  0.0000E+00  0.0000E+00
    -16.750  0.0000E+00  0.0000E+00  0.0000E+00  0.0000E+00  0.0000E+00  0.0000E+00
    -16.646  0.0000E+00  0.0000E+00  0.0000E+00  0.0000E+00  0.0000E+00  0.0000E+00
    -16.542  0.0000E+00  0.0000E+00  0.0000E+00  0.0000E+00  0.0000E+00  0.0000E+00
    -16.439  0.0000E+00  0.0000E+00  0.0000E+00  0.0000E+00  0.0000E+00  0.0000E+00
    -16.335  0.0000E+00  0.0000E+00  0.0000E+00  0.0000E+00  0.0000E+00  0.0000E+00
    -16.231  0.0000E+00  0.0000E+00  0.0000E+00  0.0000E+00  0.0000E+00  0.0000E+00
    -16.127  0.0000E+00  0.0000E+00  0.0000E+00  0.0000E+00  0.0000E+00  0.0000E+00
    -16.024  0.0000E+00  0.0000E+00  0.0000E+00  0.0000E+00  0.0000E+00  0.0000E+00
    -15.920  0.0000E+00  0.0000E+00  0.0000E+00  0.0000E+00  0.0000E+00  0.0000E+00
    -15.816  0.0000E+00  0.0000E+00  0.0000E+00  0.0000E+00  0.0000E+00  0.0000E+00
    -15.712  0.0000E+00  0.0000E+00  0.0000E+00  0.0000E+00  0.0000E+00  0.0000E+00
    -15.609  0.0000E+00  0.0000E+00  0.0000E+00  0.0000E+00  0.0000E+00  0.0000E+00
    -15.505  0.0000E+00  0.0000E+00  0.0000E+00  0.0000E+00  0.0000E+00  0.0000E+00
    -15.401  0.0000E+00  0.0000E+00  0.0000E+00  0.0000E+00  0.0000E+00  0.0000E+00
    -15.297  0.0000E+00  0.0000E+00  0.0000E+00  0.0000E+00  0.0000E+00  0.0000E+00
    -15.193  0.0000E+00  0.0000E+00  0.0000E+00  0.0000E+00  0.0000E+00  0.0000E+00
    -15.090  0.0000E+00  0.0000E+00  0.0000E+00  0.0000E+00  0.0000E+00  0.0000E+00
    -14.986  0.0000E+00  0.0000E+00  0.0000E+00  0.0000E+00  0.0000E+00  0.0000E+00
    -14.882  0.0000E+00  0.0000E+00  0.0000E+00  0.0000E+00  0.0000E+00  0.0000E+00
    -14.778  0.0000E+00  0.0000E+00  0.0000E+00  0.0000E+00  0.0000E+00  0.0000E+00
    -14.675  0.0000E+00  0.0000E+00  0.0000E+00  0.0000E+00  0.0000E+00  0.0000E+00
    -14.571  0.0000E+00  0.0000E+00  0.0000E+00  0.0000E+00  0.0000E+00  0.0000E+00
    -14.467  0.0000E+00  0.0000E+00  0.0000E+00  0.0000E+00  0.0000E+00  0.0000E+00
    -14.363  0.0000E+00  0.0000E+00  0.0000E+00  0.0000E+00  0.0000E+00  0.0000E+00
    -14.260  0.0000E+00  0.0000E+00  0.0000E+00  0.0000E+00  0.0000E+00  0.0000E+00
    -14.156  0.0000E+00  0.0000E+00  0.0000E+00  0.0000E+00  0.0000E+00  0.0000E+00
    -14.052  0.0000E+00  0.0000E+00  0.0000E+00  0.0000E+00  0.0000E+00  0.0000E+00
    -13.948  0.0000E+00  0.0000E+00  0.0000E+00  0.0000E+00  0.0000E+00  0.0000E+00
    -13.844  0.0000E+00  0.0000E+00  0.0000E+00  0.0000E+00  0.0000E+00  0.0000E+00
    -13.741  0.0000E+00  0.0000E+00  0.0000E+00  0.0000E+00  0.0000E+00  0.0000E+00
    -13.637  0.0000E+00  0.0000E+00  0.0000E+00  0.0000E+00  0.0000E+00  0.0000E+00
    -13.533  0.0000E+00  0.0000E+00  0.0000E+00  0.0000E+00  0.0000E+00  0.0000E+00
    -13.429  0.0000E+00  0.0000E+00  0.0000E+00  0.0000E+00  0.0000E+00  0.0000E+00
    -13.326  0.0000E+00  0.0000E+00  0.0000E+00  0.0000E+00  0.0000E+00  0.0000E+00
    -13.222  0.0000E+00  0.0000E+00  0.0000E+00  0.0000E+00  0.0000E+00  0.0000E+00
    -13.118  0.0000E+00  0.0000E+00  0.0000E+00  0.0000E+00  0.0000E+00  0.0000E+00
    -13.014  0.0000E+00  0.0000E+00  0.0000E+00  0.0000E+00  0.0000E+00  0.0000E+00
    -12.911  0.0000E+00  0.0000E+00  0.0000E+00  0.0000E+00  0.0000E+00  0.0000E+00
    -12.807  0.0000E+00  0.0000E+00  0.0000E+00  0.0000E+00  0.0000E+00  0.0000E+00
    -12.703  0.0000E+00  0.0000E+00  0.0000E+00  0.0000E+00  0.0000E+00  0.0000E+00
    -12.599  0.0000E+00  0.0000E+00  0.0000E+00  0.0000E+00  0.0000E+00  0.0000E+00
    -12.495  0.0000E+00  0.0000E+00  0.0000E+00  0.0000E+00  0.0000E+00  0.0000E+00
    -12.392  0.0000E+00  0.0000E+00  0.0000E+00  0.0000E+00  0.0000E+00  0.0000E+00
    -12.288  0.0000E+00  0.0000E+00  0.0000E+00  0.0000E+00  0.0000E+00  0.0000E+00
    -12.184  0.0000E+00  0.0000E+00  0.0000E+00  0.0000E+00  0.0000E+00  0.0000E+00
    -12.080  0.0000E+00  0.0000E+00  0.0000E+00  0.0000E+00  0.0000E+00  0.0000E+00
    -11.977  0.0000E+00  0.0000E+00  0.0000E+00  0.0000E+00  0.0000E+00  0.0000E+00
    -11.873  0.0000E+00  0.0000E+00  0.0000E+00  0.0000E+00  0.0000E+00  0.0000E+00
    -11.769  0.0000E+00  0.0000E+00  0.0000E+00  0.0000E+00  0.0000E+00  0.0000E+00
    -11.665  0.0000E+00  0.0000E+00  0.0000E+00  0.0000E+00  0.0000E+00  0.0000E+00
    -11.562  0.0000E+00  0.0000E+00  0.0000E+00  0.0000E+00  0.0000E+00  0.0000E+00
    -11.458  0.0000E+00  0.0000E+00  0.0000E+00  0.0000E+00  0.0000E+00  0.0000E+00
    -11.354  0.0000E+00  0.0000E+00  0.0000E+00  0.0000E+00  0.0000E+00  0.0000E+00
    -11.250  0.0000E+00  0.0000E+00  0.0000E+00  0.0000E+00  0.0000E+00  0.0000E+00
    -11.146  0.0000E+00  0.0000E+00  0.0000E+00  0.0000E+00  0.0000E+00  0.0000E+00
    -11.043  0.0000E+00  0.0000E+00  0.0000E+00  0.0000E+00  0.0000E+00  0.0000E+00
    -10.939  0.0000E+00  0.0000E+00  0.0000E+00  0.0000E+00  0.0000E+00  0.0000E+00
    -10.835  0.0000E+00  0.0000E+00  0.0000E+00  0.0000E+00  0.0000E+00  0.0000E+00
    -10.731  0.0000E+00  0.0000E+00  0.0000E+00  0.0000E+00  0.0000E+00  0.0000E+00
    -10.628  0.0000E+00  0.0000E+00  0.0000E+00  0.0000E+00  0.0000E+00  0.0000E+00
    -10.524  0.0000E+00  0.0000E+00  0.0000E+00  0.0000E+00  0.0000E+00  0.0000E+00
    -10.420  0.0000E+00  0.0000E+00  0.0000E+00  0.0000E+00  0.0000E+00  0.0000E+00
    -10.316  0.0000E+00  0.0000E+00  0.0000E+00  0.0000E+00  0.0000E+00  0.0000E+00
    -10.213  0.0000E+00  0.0000E+00  0.0000E+00  0.0000E+00  0.0000E+00  0.0000E+00
    -10.109  0.0000E+00  0.0000E+00  0.0000E+00  0.0000E+00  0.0000E+00  0.0000E+00
    -10.005  0.0000E+00  0.0000E+00  0.0000E+00  0.0000E+00  0.0000E+00  0.0000E+00
     -9.901  0.0000E+00  0.0000E+00  0.0000E+00  0.0000E+00  0.0000E+00  0.0000E+00
     -9.797  0.0000E+00 -0.8302E-33  0.0000E+00 -0.1076E-33  0.0000E+00 -0.1104E-36
     -9.694 -0.4259E-30 -0.3912E-29 -0.5517E-31 -0.5072E-30 -0.3283E-34 -0.5201E-33
     -9.590 -0.1347E-26 -0.1072E-25 -0.1745E-27 -0.1389E-26 -0.1039E-30 -0.1425E-29
     -9.486 -0.2477E-23 -0.1704E-22 -0.3208E-24 -0.2210E-23 -0.1909E-27 -0.2266E-26
     -9.382 -0.2643E-20 -0.1573E-19 -0.3423E-21 -0.2040E-20 -0.2037E-24 -0.2092E-23
     -9.279 -0.1635E-17 -0.8135E-17 -0.2118E-18 -0.1055E-17 -0.1260E-21 -0.1082E-20
     -9.175 -0.5665E-15 -0.2518E-14 -0.7339E-16 -0.3264E-15 -0.4369E-19 -0.3348E-18
     -9.071 -0.1164E-12 -0.4468E-12 -0.1508E-13 -0.5793E-13 -0.8993E-17 -0.5948E-16
     -8.967 -0.1376E-10 -0.4553E-10 -0.1782E-11 -0.5904E-11 -0.1068E-14 -0.6080E-14
     -8.864 -0.9298E-09 -0.2648E-08 -0.1204E-09 -0.3434E-09 -0.7328E-13 -0.3575E-12
     -8.760 -0.3562E-07 -0.8706E-07 -0.4615E-08 -0.1129E-07 -0.2960E-11 -0.1220E-10
     -8.656 -0.7624E-06 -0.1590E-05 -0.9882E-07 -0.2063E-06 -0.7514E-10 -0.2524E-09
     -8.552 -0.8873E-05 -0.1561E-04 -0.1152E-05 -0.2030E-05 -0.1394E-08 -0.3610E-08
     -8.448 -0.5301E-04 -0.7658E-04 -0.6930E-05 -0.1006E-04 -0.2133E-07 -0.4218E-07
     -8.345 -0.1383E-03 -0.1476E-03 -0.1875E-04 -0.2064E-04 -0.2391E-06 -0.3795E-06
     -8.241 -0.2762E-04  0.9162E-04 -0.9278E-05  0.3451E-05 -0.1553E-05 -0.2000E-05
     -8.137  0.6462E-03  0.9779E-03  0.6769E-04  0.1101E-03 -0.4306E-05 -0.3867E-05
     -8.033  0.2439E-02  0.3371E-02  0.3249E-03  0.4705E-03  0.2643E-05  0.8411E-05
     -7.930  0.7009E-02  0.8724E-02  0.1056E-02  0.1333E-02  0.4071E-04  0.4924E-04
     -7.826  0.1181E-01  0.1231E-01  0.1832E-02  0.1914E-02  0.8230E-04  0.7649E-04
     -7.722  0.9289E-02  0.7686E-02  0.1430E-02  0.1175E-02  0.5914E-04  0.4037E-04
     -7.618  0.2612E-02  0.1649E-02  0.3874E-03  0.2540E-03  0.1012E-04  0.8670E-05
     -7.515  0.2339E-02  0.3538E-02  0.5057E-03  0.7686E-03  0.7106E-04  0.9486E-04
     -7.411  0.8454E-02  0.1007E-01  0.1805E-02  0.2151E-02  0.2536E-03  0.2627E-03
     -7.307  0.1270E-01  0.1327E-01  0.2768E-02  0.2922E-02  0.4196E-03  0.3926E-03
     -7.203  0.1289E-01  0.1286E-01  0.2965E-02  0.2995E-02  0.5188E-03  0.4616E-03
     -7.099  0.9964E-02  0.9214E-02  0.2390E-02  0.2224E-02  0.4554E-03  0.3658E-03
     -6.996  0.3867E-02  0.2823E-02  0.9619E-03  0.7122E-03  0.1765E-03  0.1075E-03
     -6.892 -0.1037E-02 -0.1478E-02 -0.2138E-03 -0.3269E-03 -0.8696E-04 -0.9619E-04
     -6.788 -0.1220E-02 -0.9234E-03 -0.3080E-03 -0.2527E-03 -0.8114E-04 -0.5084E-04
     -6.684  0.6960E-02  0.8341E-02  0.1560E-02  0.1903E-02  0.6284E-03  0.6353E-03
     -6.581  0.2541E-01  0.2772E-01  0.5225E-02  0.5767E-02  0.2004E-02  0.1859E-02
     -6.477  0.4171E-01  0.4360E-01  0.6865E-02  0.7147E-02  0.2633E-02  0.2328E-02
     -6.373  0.3729E-01  0.3770E-01  0.4654E-02  0.4570E-02  0.1883E-02  0.1592E-02