SQS-NiFe                                
           1
     9.967380    0.000000    0.000000
    -4.983690    8.632004    0.000000
     0.000000    0.000000   21.103750
   Ni   O 
  64   4
Direct configuration=     1
   0.11283300  0.22566700  0.09477000
   0.11100588  0.22752325  0.38257153
   0.19616700  0.14233300  0.19117800
   0.02994861  0.05922657  0.28476749
   0.36283300  0.22566700  0.09477000
   0.36649392  0.22737091  0.38260313
   0.44616700  0.14233300  0.19117800
   0.27920438  0.05917026  0.28477124
   0.61283300  0.22566700  0.09477000
   0.61084933  0.22740353  0.38260204
   0.69616700  0.14233300  0.19117800
   0.52998787  0.05916529  0.28479691
   0.86283300  0.22566700  0.09477000
   0.86667149  0.22753035  0.38257195
   0.94616700  0.14233300  0.19117800
   0.77924882  0.05921662  0.28478858
   0.11283300  0.47566700  0.09477000
   0.11102154  0.47196250  0.38258908
   0.19616700  0.39233300  0.19117800
   0.02954462  0.30901431  0.28638585
   0.36283300  0.47566700  0.09477000
   0.36274074  0.47551090  0.37679990
   0.44616700  0.39233300  0.19117800
   0.27926766  0.30846047  0.28476500
   0.61283300  0.47566700  0.09477000
   0.61084938  0.47174406  0.38263811
   0.69616700  0.39233300  0.19117800
   0.52943940  0.30889096  0.28639515
   0.86283300  0.47566700  0.09477000
   0.86280817  0.47555898  0.37680205
   0.94616700  0.39233300  0.19117800
   0.77922810  0.30845014  0.28478111
   0.11283300  0.72566700  0.09477000
   0.11094979  0.72749862  0.38257167
   0.19616700  0.64233300  0.19117800
   0.02994926  0.55921252  0.28477286
   0.36283300  0.72566700  0.09477000
   0.36655162  0.72749432  0.38261015
   0.44616700  0.64233300  0.19117800
   0.27927722  0.55924557  0.28477864
   0.61283300  0.72566700  0.09477000
   0.61082375  0.72741769  0.38261286
   0.69616700  0.64233300  0.19117800
   0.52997816  0.55916548  0.28479746
   0.86283300  0.72566700  0.09477000
   0.86654934  0.72745592  0.38256771
   0.94616700  0.64233300  0.19117800
   0.77918148  0.55914618  0.28478998
   0.11283300  0.97566700  0.09477000
   0.11094898  0.97197579  0.38259825
   0.19616700  0.89233300  0.19117800
   0.02946510  0.80897588  0.28639259
   0.36283300  0.97566700  0.09477000
   0.36272353  0.97551895  0.37679481
   0.44616700  0.89233300  0.19117800
   0.27923096  0.80845972  0.28476617
   0.61283300  0.97566700  0.09477000
   0.61096346  0.97184273  0.38263925
   0.69616700  0.89233300  0.19117800
   0.52947533  0.80895076  0.28639673
   0.86283300  0.97566700  0.09477000
   0.86282512  0.97557201  0.37679818
   0.94616700  0.89233300  0.19117800
   0.77918819  0.80844174  0.28478294
   0.19610732  0.14231243  0.43455243
   0.69615135  0.64226023  0.43453844
   0.19613311  0.64234496  0.43453670
   0.69627549  0.14235413  0.43452452
Direct configuration=     2
   0.11283300  0.22566700  0.09477000
   0.11095320  0.22755594  0.38252592
   0.19616700  0.14233300  0.19117800
   0.02985588  0.05917361  0.28473267
   0.36283300  0.22566700  0.09477000
   0.36657362  0.22742538  0.38255335
   0.44616700  0.14233300  0.19117800
   0.27926104  0.05912709  0.28473619
   0.61283300  0.22566700  0.09477000
   0.61085211  0.22743527  0.38255874
   0.69616700  0.14233300  0.19117800
   0.52988293  0.05912411  0.28475533
   0.86283300  0.22566700  0.09477000
   0.86670149  0.22754910  0.38253211
   0.94616700  0.14233300  0.19117800
   0.77929760  0.05916642  0.28474869
   0.11283300  0.47566700  0.09477000
   0.11097112  0.47187670  0.38254137
   0.19616700  0.39233300  0.19117800
   0.02953603  0.30901272  0.28643185
   0.36283300  0.47566700  0.09477000
   0.36276106  0.47553469  0.37702232
   0.44616700  0.39233300  0.19117800
   0.27930937  0.30856115  0.28472936
   0.61283300  0.47566700  0.09477000
   0.61084499  0.47172066  0.38258892
   0.69616700  0.39233300  0.19117800
   0.52945210  0.30890491  0.28644449
   0.86283300  0.47566700  0.09477000
   0.86280073  0.47556502  0.37702422
   0.94616700  0.39233300  0.19117800
   0.77927912  0.30855181  0.28474159
   0.11283300  0.72566700  0.09477000
   0.11090129  0.72753773  0.38252617
   0.19616700  0.64233300  0.19117800
   0.02985648  0.55916471  0.28473667
   0.36283300  0.72566700  0.09477000
   0.36662079  0.72752659  0.38255869
   0.44616700  0.64233300  0.19117800
   0.27932038  0.55918671  0.28474150
   0.61283300  0.72566700  0.09477000
   0.61083301  0.72744477  0.38256959
   0.69616700  0.64233300  0.19117800
   0.52987723  0.55912546  0.28475575
   0.86283300  0.72566700  0.09477000
   0.86658767  0.72747949  0.38253223
   0.94616700  0.64233300  0.19117800
   0.77924369  0.55911145  0.28475060
   0.11283300  0.97566700  0.09477000
   0.11089332  0.97185409  0.38254503
   0.19616700  0.89233300  0.19117800
   0.02946412  0.80897576  0.28643832
   0.36283300  0.97566700  0.09477000
   0.36274702  0.97553799  0.37701804
   0.44616700  0.89233300  0.19117800
   0.27927912  0.80855956  0.28472971
   0.61283300  0.97566700  0.09477000
   0.61093382  0.97179385  0.38258597
   0.69616700  0.89233300  0.19117800
   0.52948300  0.80895803  0.28644701
   0.86283300  0.97566700  0.09477000
   0.86281271  0.97557357  0.37702101
   0.94616700  0.89233300  0.19117800
   0.77924836  0.80854596  0.28474348
   0.19611172  0.14231243  0.43468309
   0.69614459  0.64225183  0.43464744
   0.19613042  0.64233436  0.43466698
   0.69626753  0.14234835  0.43464513
Direct configuration=     3
   0.11283300  0.22566700  0.09477000
   0.11092482  0.22757355  0.38250136
   0.19616700  0.14233300  0.19117800
   0.02980593  0.05914509  0.28471391
   0.36283300  0.22566700  0.09477000
   0.36661655  0.22745473  0.38252654
   0.44616700  0.14233300  0.19117800
   0.27929155  0.05910384  0.28471731
   0.61283300  0.22566700  0.09477000
   0.61085361  0.22745237  0.38253542
   0.69616700  0.14233300  0.19117800
   0.52982641  0.05910194  0.28473294
   0.86283300  0.22566700  0.09477000
   0.86671765  0.22755920  0.38251066
   0.94616700  0.14233300  0.19117800
   0.77932387  0.05913939  0.28472720
   0.11283300  0.47566700  0.09477000
   0.11094396  0.47183049  0.38251567
   0.19616700  0.39233300  0.19117800
   0.02953141  0.30901187  0.28645662
   0.36283300  0.47566700  0.09477000
   0.36277200  0.47554750  0.37714213
   0.44616700  0.39233300  0.19117800
   0.27933184  0.30861538  0.28471016
   0.61283300  0.47566700  0.09477000
   0.61084262  0.47170806  0.38256243
   0.69616700  0.39233300  0.19117800
   0.52945895  0.30891242  0.28647107
   0.86283300  0.47566700  0.09477000
   0.86279672  0.47556828  0.37714388
   0.94616700  0.39233300  0.19117800
   0.77930660  0.30860657  0.28472030
   0.11283300  0.72566700  0.09477000
   0.11087517  0.72755880  0.38250166
   0.19616700  0.64233300  0.19117800
   0.02980650  0.55913896  0.28471717
   0.36283300  0.72566700  0.09477000
   0.36665804  0.72754397  0.38253097
   0.44616700  0.64233300  0.19117800
   0.27934363  0.55915500  0.28472150
   0.61283300  0.72566700  0.09477000
   0.61083800  0.72745936  0.38254628
   0.69616700  0.64233300  0.19117800
   0.52982286  0.55910391  0.28473328
   0.86283300  0.72566700  0.09477000
   0.86660831  0.72749218  0.38251312
   0.94616700  0.64233300  0.19117800
   0.77927720  0.55909274  0.28472939
   0.11283300  0.97566700  0.09477000
   0.11086335  0.97178854  0.38251636
   0.19616700  0.89233300  0.19117800
   0.02946358  0.80897569  0.28646295
   0.36283300  0.97566700  0.09477000
   0.36275968  0.97554825  0.37713827
   0.44616700  0.89233300  0.19117800
   0.27930506  0.80861333  0.28471008
   0.61283300  0.97566700  0.09477000
   0.61091785  0.97176753  0.38255727
   0.69616700  0.89233300  0.19117800
   0.52948713  0.80896195  0.28647409
   0.86283300  0.97566700  0.09477000
   0.86280603  0.97557442  0.37714103
   0.94616700  0.89233300  0.19117800
   0.77928077  0.80860209  0.28472222
   0.19611409  0.14231243  0.43475347
   0.69614094  0.64224730  0.43470615
   0.19612898  0.64232866  0.43473714
   0.69626324  0.14234524  0.43471009
