       N       E                     dE             d eps       ncg     rms          rms(c)
DAV:   1     0.251219626574E+04    0.25122E+04   -0.10845E+05 11433   0.181E+03
DAV:   2     0.623819248166E+02   -0.24498E+04   -0.22995E+04 11424   0.390E+02
DAV:   3    -0.253333206350E+03   -0.31572E+03   -0.24847E+03 11424   0.182E+02
DAV:   4    -0.269935548403E+03   -0.16602E+02   -0.15905E+02 12276   0.495E+01
DAV:   5    -0.270150110756E+03   -0.21456E+00   -0.21400E+00 12693   0.557E+00    0.622E+01
RMM:   6    -0.250352133465E+03    0.19798E+02   -0.29427E+02 11682   0.722E+01    0.520E+01
RMM:   7    -0.311920055615E+03   -0.61568E+02   -0.78169E+01 12104   0.318E+01    0.126E+02
RMM:   8    -0.254278581728E+03    0.57641E+02   -0.36942E+01 12036   0.236E+01    0.538E+01
RMM:   9    -0.240444971932E+03    0.13834E+02   -0.12935E+01 11679   0.132E+01    0.245E+01
RMM:  10    -0.246105760517E+03   -0.56608E+01   -0.91300E+00 11687   0.108E+01    0.444E+01
RMM:  11    -0.239856798792E+03    0.62490E+01   -0.63367E+00 11603   0.947E+00    0.171E+01
RMM:  12    -0.239187683957E+03    0.66911E+00   -0.15751E+00 11746   0.450E+00    0.118E+01
RMM:  13    -0.239107606644E+03    0.80077E-01   -0.44717E-01 11901   0.241E+00    0.983E+00
RMM:  14    -0.239161871223E+03   -0.54265E-01   -0.30016E-01 11816   0.195E+00    0.874E+00
RMM:  15    -0.239303840728E+03   -0.14197E+00   -0.36144E-01 11679   0.207E+00    0.822E+00
RMM:  16    -0.239245976216E+03    0.57865E-01   -0.31841E-01 11668   0.193E+00    0.520E+00
RMM:  17    -0.239399068993E+03   -0.15309E+00   -0.14858E-01 11806   0.132E+00    0.506E+00
RMM:  18    -0.239385232579E+03    0.13836E-01   -0.14336E-01 11743   0.136E+00    0.344E+00
RMM:  19    -0.239455367762E+03   -0.70135E-01   -0.10738E-01 11658   0.117E+00    0.449E+00
RMM:  20    -0.239361722296E+03    0.93645E-01   -0.64531E-02 11571   0.963E-01    0.153E+00
RMM:  21    -0.239372584676E+03   -0.10862E-01   -0.19858E-02 11763   0.470E-01    0.169E+00
RMM:  22    -0.239362680495E+03    0.99042E-02   -0.11147E-02 11837   0.390E-01    0.521E-01
RMM:  23    -0.239365844768E+03   -0.31643E-02   -0.46321E-03 11865   0.233E-01    0.790E-01
RMM:  24    -0.239363352913E+03    0.24919E-02   -0.24790E-03 11807   0.184E-01    0.290E-01
RMM:  25    -0.239363780110E+03   -0.42720E-03   -0.80017E-04 11869   0.986E-02    0.382E-01
RMM:  26    -0.239362964010E+03    0.81610E-03   -0.45205E-04 11801   0.800E-02    0.112E-01
RMM:  27    -0.239362980903E+03   -0.16894E-04   -0.18155E-04 11831   0.459E-02    0.160E-01
RMM:  28    -0.239362835175E+03    0.14573E-03   -0.83813E-05 11831   0.353E-02    0.400E-02
RMM:  29    -0.239362874024E+03   -0.38849E-04   -0.29238E-05 11891   0.188E-02    0.624E-02
RMM:  30    -0.239362843596E+03    0.30428E-04   -0.13014E-05 11870   0.138E-02    0.173E-02
RMM:  31    -0.239362845424E+03   -0.18277E-05   -0.34689E-06  9671   0.665E-03    0.222E-02
RMM:  32    -0.239362847949E+03   -0.25247E-05   -0.16568E-06  6901   0.552E-03    0.702E-03
RMM:  33    -0.239362851751E+03   -0.38018E-05   -0.82213E-07  6382   0.341E-03    0.110E-02
RMM:  34    -0.239362849848E+03    0.19029E-05   -0.45640E-07  6190   0.302E-03    0.356E-03
RMM:  35    -0.239362849531E+03    0.31689E-06   -0.12825E-07  6152   0.135E-03
   1 F= -.23936285E+03 E0= -.23936285E+03  d E =0.000000E+00  mag=    63.7623
