 vasp.5.4.4.18Apr17-6-g9f103f2a35 (build Sep 06 2021 19:49:22) complex          
  
 executed on             LinuxIFC date 2021.12.29  16:23:44
 running on   24 total cores
 distrk:  each k-point on   24 cores,    1 groups
 distr:  one band on NCORES_PER_BAND=   8 cores,    3 groups


--------------------------------------------------------------------------------------------------------


 INCAR:
 POTCAR:    PAW_PBE Ni 02Aug2007                  
 POTCAR:    PAW_PBE Fe 06Sep2000                  
 POTCAR:    PAW_PBE Ni 02Aug2007                  
   VRHFIN =Ni:                                                                  
   LEXCH  = PE                                                                  
   EATOM  =  1077.6739 eV,   79.2068 Ry                                         
                                                                                
   TITEL  = PAW_PBE Ni 02Aug2007                                                
   LULTRA =        F    use ultrasoft PP ?                                      
   IUNSCR =        1    unscreen: 0-lin 1-nonlin 2-no                           
   RPACOR =    2.000    partial core radius                                     
   POMASS =   58.690; ZVAL   =   10.000    mass and valenz                      
   RCORE  =    2.300    outmost cutoff radius                                   
   RWIGS  =    2.430; RWIGS  =    1.286    wigner-seitz radius (au A)           
   ENMAX  =  269.532; ENMIN  =  202.149 eV                                      
   RCLOC  =    1.201    cutoff for local pot                                    
   LCOR   =        T    correct aug charges                                     
   LPAW   =        T    paw PP                                                  
   EAUG   =  544.565                                                            
   DEXC   =    0.000                                                            
   RMAX   =    2.357    core radius for proj-oper                               
   RAUG   =    1.300    factor for augmentation sphere                          
   RDEP   =    2.390    radius for radial grids                                 
   RDEPT  =    1.838    core radius for aug-charge                              
                                                                                
   Atomic configuration                                                         
    9 entries                                                                   
     n  l   j            E        occ.                                          
     1  0  0.50     -8206.4253   2.0000                                         
     2  0  0.50      -976.1748   2.0000                                         
     2  1  1.50      -839.0571   6.0000                                         
     3  0  0.50      -105.9991   2.0000                                         
     3  1  1.50       -66.4603   6.0000                                         
     3  2  2.50        -4.6458   9.0000                                         
     4  0  0.50        -4.4926   1.0000                                         
     4  1  1.50        -4.0817   0.0000                                         
     4  3  2.50        -1.3606   0.0000                                         
   Description                                                                  
     l       E           TYP  RCUT    TYP  RCUT                                 
     2     -4.6457903     23  2.300                                             
     2     -6.0063729     23  2.300                                             
     0     -4.4925590     23  2.300                                             
     0      5.0102601     23  2.300                                             
     1     -2.7211652     23  2.300                                             
     1     16.5183231     23  2.300                                             
  local pseudopotential read in
  partial core-charges read in
  partial kinetic energy density read in
  atomic valenz-charges read in
  non local Contribution for L=           2  read in
    real space projection operators read in
  non local Contribution for L=           2  read in
    real space projection operators read in
  non local Contribution for L=           0  read in
    real space projection operators read in
  non local Contribution for L=           0  read in
    real space projection operators read in
  non local Contribution for L=           1  read in
    real space projection operators read in
  non local Contribution for L=           1  read in
    real space projection operators read in
    PAW grid and wavefunctions read in
 
   number of l-projection  operators is LMAX  =           6
   number of lm-projection operators is LMMAX =          18
 
 POTCAR:    PAW_PBE Fe 06Sep2000                  
   VRHFIN =Fe:  d7 s1                                                           
   LEXCH  = PE                                                                  
   EATOM  =   594.3153 eV,   43.6809 Ry                                         
                                                                                
   TITEL  = PAW_PBE Fe 06Sep2000                                                
   LULTRA =        F    use ultrasoft PP ?                                      
   IUNSCR =        1    unscreen: 0-lin 1-nonlin 2-no                           
   RPACOR =    2.000    partial core radius                                     
   POMASS =   55.847; ZVAL   =    8.000    mass and valenz                      
   RCORE  =    2.300    outmost cutoff radius                                   
   RWIGS  =    2.460; RWIGS  =    1.302    wigner-seitz radius (au A)           
   ENMAX  =  267.882; ENMIN  =  200.911 eV                                      
   RCLOC  =    1.701    cutoff for local pot                                    
   LCOR   =        T    correct aug charges                                     
   LPAW   =        T    paw PP                                                  
   EAUG   =  511.368                                                            
   DEXC   =    0.000                                                            
   RMAX   =    2.356    core radius for proj-oper                               
   RAUG   =    1.300    factor for augmentation sphere                          
   RDEP   =    2.442    radius for radial grids                                 
   RDEPT  =    1.890    core radius for aug-charge                              
                                                                                
   Atomic configuration                                                         
    9 entries                                                                   
     n  l   j            E        occ.                                          
     1  0  0.50     -6993.8440   2.0000                                         
     2  0  0.50      -814.6047   2.0000                                         
     2  1  1.50      -693.3689   6.0000                                         
     3  0  0.50       -89.4732   2.0000                                         
     3  1  1.50       -55.6373   6.0000                                         
     3  2  2.50        -3.8151   7.0000                                         
     4  0  0.50        -4.2551   1.0000                                         
     4  1  1.50        -3.4015   0.0000                                         
     4  3  2.50        -1.3606   0.0000                                         
   Description                                                                  
     l       E           TYP  RCUT    TYP  RCUT                                 
     2     -3.8151135     23  2.300                                             
     2     -5.1756961     23  2.300                                             
     0     -4.2550963     23  2.300                                             
     0      7.2035603     23  2.300                                             
     1     -2.7211652     23  2.300                                             
     1     18.4316424     23  2.300                                             
  local pseudopotential read in
  partial core-charges read in
  partial kinetic energy density read in
  atomic valenz-charges read in
  non local Contribution for L=           2  read in
    real space projection operators read in
  non local Contribution for L=           2  read in
    real space projection operators read in
  non local Contribution for L=           0  read in
    real space projection operators read in
  non local Contribution for L=           0  read in
    real space projection operators read in
  non local Contribution for L=           1  read in
    real space projection operators read in
  non local Contribution for L=           1  read in
    real space projection operators read in
    PAW grid and wavefunctions read in
 
   number of l-projection  operators is LMAX  =           6
   number of lm-projection operators is LMMAX =          18
 
 Optimization of the real space projectors (new method)

 maximal supplied QI-value         = 16.25
 optimisation between [QCUT,QGAM] = [ 11.54, 23.24] = [ 37.28,151.24] Ry 
 Optimized for a Real-space Cutoff    1.45 Angstroem

   l    n(q)    QCUT    max X(q) W(low)/X(q) W(high)/X(q)  e(spline) 
   2      9    11.539    60.317    0.19E-03    0.47E-04    0.16E-06
   2      9    11.539    55.921    0.19E-03    0.48E-04    0.16E-06
   0     10    11.539    51.690    0.80E-04    0.50E-04    0.24E-06
   0     10    11.539    30.015    0.73E-04    0.45E-04    0.22E-06
   1     10    11.539    18.849    0.87E-04    0.16E-03    0.71E-07
   1     10    11.539    14.624    0.73E-04    0.13E-03    0.64E-07
 Optimization of the real space projectors (new method)

 maximal supplied QI-value         = 16.25
 optimisation between [QCUT,QGAM] = [ 11.54, 23.24] = [ 37.28,151.24] Ry 
 Optimized for a Real-space Cutoff    1.53 Angstroem

   l    n(q)    QCUT    max X(q) W(low)/X(q) W(high)/X(q)  e(spline) 
   2     10    11.539    80.901    0.11E-03    0.14E-03    0.21E-06
   2     10    11.539    75.754    0.11E-03    0.14E-03    0.22E-06
   0     11    11.539    58.752    0.52E-04    0.18E-04    0.33E-06
   0     11    11.539    30.679    0.44E-04    0.16E-04    0.30E-06
   1     10    11.539    17.977    0.53E-04    0.29E-04    0.13E-06
   1     10    11.539    13.559    0.44E-04    0.25E-04    0.11E-06
  PAW_PBE Ni 02Aug2007                  :
 energy of atom  1       EATOM=-1077.6739
 kinetic energy error for atom=    0.0030 (will be added to EATOM!!)
  PAW_PBE Fe 06Sep2000                  :
 energy of atom  2       EATOM= -594.3153
 kinetic energy error for atom=    0.0026 (will be added to EATOM!!)
 
 
 POSCAR: POSCAR                                  
  positions in direct lattice
  velocities in cartesian coordinates
 exchange correlation table for  LEXCH =        8
   RHO(1)=    0.500       N(1)  =     2000
   RHO(2)=  100.500       N(2)  =     4000
 


--------------------------------------------------------------------------------------------------------


 ion  position               nearest neighbor table
   1  0.999  0.000  0.501-  25 2.47  12 2.49   7 2.49   5 2.49  16 2.50  11 2.51  20 2.51  10 2.52
                             3 2.53   2 2.53  31 2.53  18 2.54
   2  0.002  0.252  0.749-  12 2.48  26 2.50   7 2.50  19 2.51  13 2.51  17 2.51   9 2.51   8 2.52
                             4 2.52   3 2.52  16 2.53   1 2.53
   3  0.250  1.000  0.750-  24 2.49  20 2.50   9 2.51  21 2.51   2 2.52  27 2.52   1 2.53  12 2.53
                            14 2.53  15 2.53   5 2.53  19 2.54
   4  1.000  0.500  0.499-  26 2.49  18 2.49   7 2.49  30 2.49  12 2.50  13 2.50   6 2.50   5 2.52
                             2 2.52  10 2.53  31 2.54  20 2.55
   5  0.998  0.751  0.745-   1 2.49  26 2.50  31 2.50  20 2.50  13 2.51   4 2.52  16 2.52   9 2.53
                             3 2.53  32 2.55  27 2.56  17 2.58
   6  0.250  0.499  0.253-   4 2.50  23 2.51  12 2.51  28 2.51  10 2.51  29 2.52  18 2.52  19 2.53
                            17 2.55  20 2.55  27 2.55  22 2.56
   7  0.756  0.250  0.500-  30 2.48   1 2.49   4 2.49  16 2.50  26 2.50   2 2.50  25 2.50  10 2.52
                            14 2.54  22 2.54  23 2.55  15 2.57
   8  0.755  0.250  0.999-  17 2.49   9 2.49   2 2.52  30 2.52  16 2.52  22 2.54  10 2.54  25 2.54
                            26 2.54  15 2.55  21 2.57  28 2.58
   9  0.999  0.001  0.995-   8 2.49  19 2.51  16 2.51   3 2.51   2 2.51   5 2.53  25 2.53  27 2.54
                            32 2.54  10 2.54  11 2.56  18 2.59
  10  0.005  0.248  0.251-  12 2.46  19 2.47  11 2.49  25 2.50   6 2.51   1 2.52   7 2.52  30 2.52
                            17 2.52   4 2.53   8 2.54   9 2.54
  11  0.247  0.997  0.253-  20 2.49  10 2.49   1 2.51  12 2.52  18 2.52  29 2.52  27 2.53  19 2.55
                             9 2.56  22 2.56  14 2.56  21 2.56
  12  0.243  0.249  0.499-  10 2.46   2 2.48   1 2.49   4 2.50   6 2.51  11 2.52   3 2.53  13 2.54
                            15 2.57  14 2.57  23 2.58  22 2.58
  13  0.247  0.504  0.745-   4 2.50  20 2.50   5 2.51   2 2.51  24 2.52  27 2.52  23 2.53  12 2.54
                            17 2.54  15 2.55  28 2.57  19 2.58
  14  0.503  0.001  0.503-  24 2.49  16 2.49  31 2.51  22 2.52  15 2.52   3 2.53  20 2.53  29 2.53
                             7 2.54  25 2.55  11 2.56  12 2.57
  15  0.498  0.252  0.751-  14 2.52   3 2.53  21 2.53  23 2.53  16 2.53  13 2.55  19 2.55   8 2.55
                            28 2.55  26 2.55  12 2.57   7 2.57
  16  0.751  0.003  0.747-  14 2.49   1 2.50   7 2.50   9 2.51   8 2.52   5 2.52  31 2.52   2 2.53
                            15 2.53  21 2.54  24 2.55  32 2.56
  17  0.999  0.497  0.001-   8 2.49  19 2.49   2 2.51  26 2.52  10 2.52  30 2.52  18 2.54  13 2.54
                            27 2.54   6 2.55  32 2.55   5 2.58
  18  0.999  0.747  0.253-   4 2.49  25 2.52  11 2.52   6 2.52  20 2.52  31 2.53  30 2.53   1 2.54
                            17 2.54  27 2.55  32 2.55   9 2.59
  19  0.245  0.250  0.002-  10 2.47  17 2.49   9 2.51   2 2.51   6 2.53   3 2.54  11 2.55  15 2.55
                            28 2.55  21 2.56  22 2.56  13 2.58
  20  0.249  0.754  0.502-  11 2.49  24 2.49   3 2.50  13 2.50   5 2.50   1 2.51  29 2.51  18 2.52
                            14 2.53   6 2.55   4 2.55  23 2.56
  21  0.499  0.997  0.997-  24 2.50  32 2.51  27 2.51   3 2.51  15 2.53  22 2.53  16 2.54  29 2.55
                            19 2.56  11 2.56   8 2.57  25 2.60
  22  0.504  0.246  0.250-  30 2.51  25 2.51  14 2.52  21 2.53   8 2.54   7 2.54  23 2.54  28 2.54
                            11 2.56  19 2.56   6 2.56  12 2.58
  23  0.501  0.500  0.498-  29 2.50   6 2.51  30 2.51  31 2.51  13 2.53  15 2.53  26 2.54  24 2.54
                            22 2.54   7 2.55  20 2.56  12 2.58
  24  0.496  0.753  0.747-  14 2.49  20 2.49   3 2.49  21 2.50  31 2.52  27 2.52  13 2.52  23 2.54
                            32 2.55  16 2.55  28 2.56  26 2.59
  25  0.757  0.002  0.253-   1 2.47  10 2.50   7 2.50  22 2.51  18 2.52  31 2.52   9 2.53   8 2.54
                            14 2.55  32 2.56  29 2.59  21 2.60
  26  0.755  0.500  0.746-   4 2.49   5 2.50   7 2.50   2 2.50  31 2.51  17 2.52  23 2.54   8 2.54
                            32 2.55  15 2.55  24 2.59  28 2.61
  27  0.250  0.750  0.999-  28 2.50  21 2.51  24 2.52  13 2.52   3 2.52  11 2.53   9 2.54  29 2.54
                            17 2.54  18 2.55   6 2.55   5 2.56
  28  0.497  0.503  0.004-  27 2.50  29 2.51   6 2.51  32 2.51  22 2.54  30 2.55  15 2.55  19 2.55
                            24 2.56  13 2.57   8 2.58  26 2.61
  29  0.498  0.750  0.253-  23 2.50  28 2.51  20 2.51  31 2.51   6 2.52  11 2.52  14 2.53  27 2.54
                            32 2.54  21 2.55  30 2.58  25 2.59
  30  0.752  0.494  0.253-   7 2.48   4 2.49  22 2.51  23 2.51   8 2.52  10 2.52  17 2.52  18 2.53
                            28 2.55  31 2.55  32 2.57  29 2.58
  31  0.748  0.750  0.501-   5 2.50  14 2.51  26 2.51  23 2.51  29 2.51  24 2.52  16 2.52  25 2.52
                            18 2.53   1 2.53   4 2.54  30 2.55
  32  0.748  0.750  1.000-  21 2.51  28 2.51   9 2.54  29 2.54  24 2.55  26 2.55  17 2.55  18 2.55
                             5 2.55  25 2.56  16 2.56  30 2.57
 

IMPORTANT INFORMATION: All symmetrisations will be switched off!
NOSYMM: (Re-)initialisation of all symmetry stuff for point group C_1.

 
 

Automatic generation of k-mesh.
 generate k-points for:    3    3    3
Space group operators:
 irot       det(A)        alpha          n_x          n_y          n_z        tau_x        tau_y        tau_z
    1     1.000000     0.000000     1.000000     0.000000     0.000000     0.000000     0.000000     0.000000
 
 Subroutine IBZKPT returns following result:
 ===========================================
 
 Found     14 irreducible k-points:
 
 Following reciprocal coordinates:
            Coordinates               Weight
  0.000000  0.000000  0.000000      1.000000
  0.333333  0.000000  0.000000      2.000000
  0.000000  0.333333  0.000000      2.000000
  0.333333  0.333333  0.000000      2.000000
 -0.333333  0.333333  0.000000      2.000000
  0.000000  0.000000  0.333333      2.000000
  0.333333  0.000000  0.333333      2.000000
 -0.333333  0.000000  0.333333      2.000000
  0.000000  0.333333  0.333333      2.000000
  0.333333  0.333333  0.333333      2.000000
 -0.333333  0.333333  0.333333      2.000000
  0.000000 -0.333333  0.333333      2.000000
  0.333333 -0.333333  0.333333      2.000000
 -0.333333 -0.333333  0.333333      2.000000
 
 Following cartesian coordinates:
            Coordinates               Weight
  0.000000  0.000000  0.000000      1.000000
  0.166667  0.000000  0.000000      2.000000
  0.000000  0.166667  0.000000      2.000000
  0.166667  0.166667  0.000000      2.000000
 -0.166667  0.166667  0.000000      2.000000
  0.000000  0.000000  0.166667      2.000000
  0.166667  0.000000  0.166667      2.000000
 -0.166667  0.000000  0.166667      2.000000
  0.000000  0.166667  0.166667      2.000000
  0.166667  0.166667  0.166667      2.000000
 -0.166667  0.166667  0.166667      2.000000
  0.000000 -0.166667  0.166667      2.000000
  0.166667 -0.166667  0.166667      2.000000
 -0.166667 -0.166667  0.166667      2.000000
 
 TETIRR: Found     78 inequivalent tetrahedra from      162


--------------------------------------------------------------------------------------------------------




 Dimension of arrays:
   k-points           NKPTS =     14   k-points in BZ     NKDIM =     14   number of bands    NBANDS=    204
   number of dos      NEDOS =    301   number of ions     NIONS =     32
   non local maximal  LDIM  =      6   non local SUM 2l+1 LMDIM =     18
   total plane-waves  NPLWV = 157464
   max r-space proj   IRMAX =   6561   max aug-charges    IRDMAX=  15543
   dimension x,y,z NGX =    54 NGY =   54 NGZ =   54
   dimension x,y,z NGXF=   108 NGYF=  108 NGZF=  108
   support grid    NGXF=   108 NGYF=  108 NGZF=  108
   ions per type =               8  24
   NGX,Y,Z   is equivalent  to a cutoff of  12.56, 12.56, 12.56 a.u.
   NGXF,Y,Z  is equivalent  to a cutoff of  25.11, 25.11, 25.11 a.u.

 SYSTEM =  SQS-NiFe                                
 POSCAR =  POSCAR                                  

 Startparameter for this run:
   NWRITE =      2    write-flag & timer
   PREC   = accura    normal or accurate (medium, high low for compatibility)
   ISTART =      0    job   : 0-new  1-cont  2-samecut
   ICHARG =      2    charge: 1-file 2-atom 10-const
   ISPIN  =      2    spin polarized calculation?
   LNONCOLLINEAR =      F non collinear calculations
   LSORBIT =      F    spin-orbit coupling
   INIWAV =      1    electr: 0-lowe 1-rand  2-diag
   LASPH  =      F    aspherical Exc in radial PAW
   METAGGA=      F    non-selfconsistent MetaGGA calc.

 Electronic Relaxation 1
   ENCUT  =  520.0 eV  38.22 Ry    6.18 a.u.  13.29 13.29 13.29*2*pi/ulx,y,z
   ENINI  =  520.0     initial cutoff
   ENAUG  =  544.6 eV  augmentation charge cutoff
   NELM   =    200;   NELMIN=  2; NELMDL= -5     # of ELM steps 
   EDIFF  = 0.1E-05   stopping-criterion for ELM
   LREAL  =      T    real-space projection
   NLSPLINE    = F    spline interpolate recip. space projectors
   LCOMPAT=      F    compatible to vasp.4.4
   GGA_COMPAT  = T    GGA compatible to vasp.4.4-vasp.4.6
   LMAXPAW     = -100 max onsite density
   LMAXMIX     =    2 max onsite mixed and CHGCAR
   VOSKOWN=      0    Vosko Wilk Nusair interpolation
   ROPT   =   -0.00025  -0.00025
 Ionic relaxation
   EDIFFG = -.2E-01   stopping-criterion for IOM
   NSW    =      0    number of steps for IOM
   NBLOCK =      1;   KBLOCK =      1    inner block; outer block 
   IBRION =     -1    ionic relax: 0-MD 1-quasi-New 2-CG
   NFREE  =      0    steps in history (QN), initial steepest desc. (CG)
   ISIF   =      2    stress and relaxation
   IWAVPR =     10    prediction:  0-non 1-charg 2-wave 3-comb
   ISYM   =      0    0-nonsym 1-usesym 2-fastsym
   LCORR  =      T    Harris-Foulkes like correction to forces

   POTIM  = 0.5000    time-step for ionic-motion
   TEIN   =    0.0    initial temperature
   TEBEG  =    0.0;   TEEND  =   0.0 temperature during run
   SMASS  =  -3.00    Nose mass-parameter (am)
   estimated Nose-frequenzy (Omega)   =  0.10E-29 period in steps =****** mass=  -0.117E-26a.u.
   SCALEE = 1.0000    scale energy and forces
   NPACO  =    256;   APACO  = 16.0  distance and # of slots for P.C.
   PSTRESS=    0.0 pullay stress

  Mass of Ions in am
   POMASS =  58.69 55.85
  Ionic Valenz
   ZVAL   =  10.00  8.00
  Atomic Wigner-Seitz radii
   RWIGS  =  -1.00 -1.00
  virtual crystal weights 
   VCA    =   1.00  1.00
   NELECT =     272.0000    total number of electrons
   NUPDOWN=      -1.0000    fix difference up-down

 DOS related values:
   EMIN   =  10.00;   EMAX   =-10.00  energy-range for DOS
   EFERMI =   0.00
   ISMEAR =    -5;   SIGMA  =   0.20  broadening in eV -4-tet -1-fermi 0-gaus

 Electronic relaxation 2 (details)
   IALGO  =     68    algorithm
   LDIAG  =      T    sub-space diagonalisation (order eigenvalues)
   LSUBROT=      F    optimize rotation matrix (better conditioning)
   TURBO    =      0    0=normal 1=particle mesh
   IRESTART =      0    0=no restart 2=restart with 2 vectors
   NREBOOT  =      0    no. of reboots
   NMIN     =      0    reboot dimension
   EREF     =   0.00    reference energy to select bands
   IMIX   =      4    mixing-type and parameters
     AMIX     =   0.40;   BMIX     =  1.00
     AMIX_MAG =   1.60;   BMIX_MAG =  1.00
     AMIN     =   0.10
     WC   =   100.;   INIMIX=   1;  MIXPRE=   1;  MAXMIX= -45

 Intra band minimization:
   WEIMIN = 0.0000     energy-eigenvalue tresh-hold
   EBREAK =  0.12E-08  absolut break condition
   DEPER  =   0.30     relativ break condition  

   TIME   =   0.40     timestep for ELM

  volume/ion in A,a.u.               =      11.42        77.08
  Fermi-wavevector in a.u.,A,eV,Ry     =   1.483514  2.803436 29.943904  2.200815
  Thomas-Fermi vector in A             =   2.597166
 
 Write flags
   LWAVE        =      F    write WAVECAR
   LDOWNSAMPLE  =      F    k-point downsampling of WAVECAR
   LCHARG       =      T    write CHGCAR
   LVTOT        =      F    write LOCPOT, total local potential
   LVHAR        =      F    write LOCPOT, Hartree potential only
   LELF         =      F    write electronic localiz. function (ELF)
   LORBIT       =     11    0 simple, 1 ext, 2 COOP (PROOUT), +10 PAW based schemes


 Dipole corrections
   LMONO  =      F    monopole corrections only (constant potential shift)
   LDIPOL =      F    correct potential (dipole corrections)
   IDIPOL =      0    1-x, 2-y, 3-z, 4-all directions 
   EPSILON=  1.0000000 bulk dielectric constant

 Exchange correlation treatment:
   GGA     =    --    GGA type
   LEXCH   =     8    internal setting for exchange type
   VOSKOWN=      0    Vosko Wilk Nusair interpolation
   LHFCALC =     F    Hartree Fock is set to
   LHFONE  =     F    Hartree Fock one center treatment
   AEXX    =    0.0000 exact exchange contribution

 Linear response parameters
   LEPSILON=     F    determine dielectric tensor
   LRPA    =     F    only Hartree local field effects (RPA)
   LNABLA  =     F    use nabla operator in PAW spheres
   LVEL    =     F    velocity operator in full k-point grid
   LINTERFAST=   F  fast interpolation
   KINTER  =     0    interpolate to denser k-point grid
   CSHIFT  =0.1000    complex shift for real part using Kramers Kronig
   OMEGAMAX=  -1.0    maximum frequency
   DEG_THRESHOLD= 0.2000000E-02 threshold for treating states as degnerate
   RTIME   =   -0.100 relaxation time in fs
  (WPLASMAI=    0.000 imaginary part of plasma frequency in eV, 0.658/RTIME)
   DFIELD  = 0.0000000 0.0000000 0.0000000 field for delta impulse in time
 
 Orbital magnetization related:
   ORBITALMAG=     F  switch on orbital magnetization
   LCHIMAG   =     F  perturbation theory with respect to B field
   DQ        =  0.001000  dq finite difference perturbation B field
   LLRAUG    =     F  two centre corrections for induced B field



--------------------------------------------------------------------------------------------------------


 Static calculation
 charge density and potential will be updated during run
 spin polarized calculation
 RMM-DIIS sequential band-by-band and
  variant of blocked Davidson during initial phase
 perform sub-space diagonalisation
    before iterative eigenvector-optimisation
 modified Broyden-mixing scheme, WC =      100.0
 initial mixing is a Kerker type mixing with AMIX =  0.4000 and BMIX =      1.0000
 Hartree-type preconditioning will be used
 using additional bands           68
 real space projection scheme for non local part
 use partial core corrections
 calculate Harris-corrections to forces 
   (improved forces if not selfconsistent)
 use gradient corrections 
 use of overlap-Matrix (Vanderbilt PP)
 Fermi weights with tetrahedron method with Bloechl corrections


--------------------------------------------------------------------------------------------------------


  energy-cutoff  :      520.00
  volume of cell :      365.53
      direct lattice vectors                 reciprocal lattice vectors
     7.150000000  0.000000000  0.000000000     0.139860140  0.000000000  0.000000000
     0.000000000  7.150000000  0.000000000     0.000000000  0.139860140  0.000000000
     0.000000000  0.000000000  7.150000000     0.000000000  0.000000000  0.139860140

  length of vectors
     7.150000000  7.150000000  7.150000000     0.139860140  0.139860140  0.139860140


 
 k-points in units of 2pi/SCALE and weight: read from INCAR                         
   0.00000000  0.00000000  0.00000000       0.037
   0.16666667  0.00000000  0.00000000       0.074
   0.00000000  0.16666667  0.00000000       0.074
   0.16666667  0.16666667  0.00000000       0.074
  -0.16666667  0.16666667  0.00000000       0.074
   0.00000000  0.00000000  0.16666667       0.074
   0.16666667  0.00000000  0.16666667       0.074
  -0.16666667  0.00000000  0.16666667       0.074
   0.00000000  0.16666667  0.16666667       0.074
   0.16666667  0.16666667  0.16666667       0.074
  -0.16666667  0.16666667  0.16666667       0.074
   0.00000000 -0.16666667  0.16666667       0.074
   0.16666667 -0.16666667  0.16666667       0.074
  -0.16666667 -0.16666667  0.16666667       0.074
 
 k-points in reciprocal lattice and weights: read from INCAR                         
   0.00000000  0.00000000  0.00000000       0.037
   0.33333333  0.00000000  0.00000000       0.074
   0.00000000  0.33333333  0.00000000       0.074
   0.33333333  0.33333333  0.00000000       0.074
  -0.33333333  0.33333333  0.00000000       0.074
   0.00000000  0.00000000  0.33333333       0.074
   0.33333333  0.00000000  0.33333333       0.074
  -0.33333333  0.00000000  0.33333333       0.074
   0.00000000  0.33333333  0.33333333       0.074
   0.33333333  0.33333333  0.33333333       0.074
  -0.33333333  0.33333333  0.33333333       0.074
   0.00000000 -0.33333333  0.33333333       0.074
   0.33333333 -0.33333333  0.33333333       0.074
  -0.33333333 -0.33333333  0.33333333       0.074
 
 position of ions in fractional coordinates (direct lattice) 
   0.99885081  0.00005405  0.50084181
   0.00236904  0.25178726  0.74901045
   0.24964203  0.99995098  0.74970307
   0.99990507  0.49954129  0.49854249
   0.99789166  0.75105564  0.74507677
   0.25016250  0.49905534  0.25343411
   0.75605397  0.25031301  0.50027445
   0.75474512  0.24991527  0.99891466
   0.99888268  0.00088165  0.99524226
   0.00490121  0.24780848  0.25081896
   0.24676048  0.99733886  0.25267555
   0.24277109  0.24885108  0.49901459
   0.24689657  0.50415762  0.74547858
   0.50296569  0.00110228  0.50316205
   0.49823724  0.25158520  0.75095688
   0.75134729  0.00335214  0.74699880
   0.99934329  0.49705644  0.00081167
   0.99930281  0.74670277  0.25271556
   0.24498026  0.25037064  0.00203146
   0.24929703  0.75431909  0.50160751
   0.49877865  0.99745353  0.99739905
   0.50392525  0.24565328  0.24980665
   0.50096740  0.50023939  0.49843970
   0.49643736  0.75339683  0.74748631
   0.75708338  0.00202533  0.25329148
   0.75524541  0.49965824  0.74579741
   0.24974758  0.74978696  0.99893917
   0.49702948  0.50312975  0.00422081
   0.49774528  0.74971477  0.25346332
   0.75228700  0.49355366  0.25306598
   0.74784352  0.75047129  0.50079242
   0.74760384  0.74971789  0.99998602
 
 position of ions in cartesian coordinates  (Angst):
   7.14178326  0.00038644  3.58101893
   0.01693861  1.80027893  5.35542474
   1.78494049  7.14964951  5.36037692
   7.14932127  3.57172021  3.56457880
   7.13492539  5.37004779  5.32729890
   1.78866185  3.56824566  1.81205392
   5.40578589  1.78973805  3.57696231
   5.39642759  1.78689417  7.14223981
   7.14201113  0.00630381  7.11598216
   0.03504362  1.77183063  1.79335559
   1.76433744  7.13097288  1.80663015
   1.73581330  1.77928525  3.56795431
   1.76531049  3.60472701  5.33017182
   3.59620469  0.00788131  3.59760866
   3.56239628  1.79883416  5.36934172
   5.37213312  0.02396778  5.34104144
   7.14530452  3.55395351  0.00580341
   7.14501510  5.33892482  1.80691627
   1.75160889  1.79015004  0.01452497
   1.78247380  5.39338151  3.58649372
   3.56626738  7.13179274  7.13140318
   3.60306555  1.75642094  1.78611753
   3.58191692  3.57671164  3.56384384
   3.54952709  5.38678734  5.34452709
   5.41314618  0.01448109  1.81103409
   5.40000468  3.57255638  5.33245146
   1.78569523  5.36097679  7.14241508
   3.55376082  3.59737770  0.03017882
   3.55887878  5.36046061  1.81226273
   5.37885206  3.52890870  1.80942177
   5.34708116  5.36586974  3.58066580
   5.34536743  5.36048288  7.14990007
 


--------------------------------------------------------------------------------------------------------


 k-point  1 :   0.0000 0.0000 0.0000  plane waves:    9795
 k-point  2 :   0.3333 0.0000 0.0000  plane waves:    9838
 k-point  3 :   0.0000 0.3333 0.0000  plane waves:    9838
 k-point  4 :   0.3333 0.3333 0.0000  plane waves:    9847
 k-point  5 :  -0.3333 0.3333 0.0000  plane waves:    9847
 k-point  6 :   0.0000 0.0000 0.3333  plane waves:    9838
 k-point  7 :   0.3333 0.0000 0.3333  plane waves:    9847
 k-point  8 :  -0.3333 0.0000 0.3333  plane waves:    9847
 k-point  9 :   0.0000 0.3333 0.3333  plane waves:    9847
 k-point 10 :   0.3333 0.3333 0.3333  plane waves:    9871
 k-point 11 :  -0.3333 0.3333 0.3333  plane waves:    9871
 k-point 12 :   0.0000-0.3333 0.3333  plane waves:    9847
 k-point 13 :   0.3333-0.3333 0.3333  plane waves:    9871
 k-point 14 :  -0.3333-0.3333 0.3333  plane waves:    9871

 maximum and minimum number of plane-waves per node :      1255     1184

 maximum number of plane-waves:      9871
 maximum index in each direction: 
   IXMAX=   13   IYMAX=   13   IZMAX=   13
   IXMIN=  -13   IYMIN=  -13   IZMIN=  -13


 real space projection operators:
  total allocation   :      27277.17 KBytes
  max/ min on nodes  :       3538.55       3093.61


 parallel 3D FFT for wavefunctions:
    minimum data exchange during FFTs selected (reduces bandwidth)
 parallel 3D FFT for charge:
    minimum data exchange during FFTs selected (reduces bandwidth)


 total amount of memory used by VASP MPI-rank0    86919. kBytes
=======================================================================

   base      :      30000. kBytes
   nonlr-proj:       7915. kBytes
   fftplans  :       2563. kBytes
   grid      :       6379. kBytes
   one-center:        124. kBytes
   wavefun   :      39938. kBytes
 
     INWAV:  cpu time    0.0000: real time    0.0002
 Broyden mixing: mesh for mixing (old mesh)
   NGX = 27   NGY = 27   NGZ = 27
  (NGX  =108   NGY  =108   NGZ  =108)
  gives a total of  19683 points

 initial charge density was supplied:
 charge density of overlapping atoms calculated
 number of electron     272.0000000 magnetization      80.0000000
 keeping initial charge density in first step


--------------------------------------------------------------------------------------------------------


 Maximum index for non-local projection operator          930
 Maximum index for augmentation-charges         1019 (set IRDMAX)


--------------------------------------------------------------------------------------------------------


 First call to EWALD:  gamma=   0.248
 Maximum number of real-space cells 3x 3x 3
 Maximum number of reciprocal cells 3x 3x 3

    FEWALD:  cpu time    0.0020: real time    0.0017


--------------------------------------- Iteration      1(   1)  ---------------------------------------


    POTLOK:  cpu time    0.0800: real time    0.0844
    SETDIJ:  cpu time    0.0180: real time    0.0181
     EDDAV:  cpu time   13.4840: real time   13.5639
 BZINTS: Fermi energy: 22.439494;272.000000 electrons
         Band energy:4408.767685;  BLOECHL correction: -0.035911
       DOS:  cpu time    0.0780: real time    0.0810
    --------------------------------------------
      LOOP:  cpu time   13.6599: real time   13.7474

 eigenvalue-minimisations  : 11433
 total energy-change (2. order) : 0.2512196E+04  (-0.1084489E+05)
 number of electron     272.0000000 magnetization      80.0000000
 augmentation part      272.0000000 magnetization      80.0000000

 Free energy of the ion-electron system (eV)
  ---------------------------------------------------
  alpha Z        PSCENC =      1846.49885247
  Ewald energy   TEWEN  =    -21359.62396939
  -Hartree energ DENC   =     -4922.45808687
  -exchange      EXHF   =         0.00000000
  -V(xc)+E(xc)   XCENC  =       374.26488798
  PAW double counting   =     20992.88779333   -21713.01258880
  entropy T*S    EENTRO =         0.00000000
  eigenvalues    EBANDS =      4408.76768492
  atomic energy  EATOM  =     22884.87169210
  Solvation  Ediel_sol  =         0.00000000
  ---------------------------------------------------
  free energy    TOTEN  =      2512.19626574 eV

  energy without entropy =     2512.19626574  energy(sigma->0) =     2512.19626574


--------------------------------------------------------------------------------------------------------




--------------------------------------- Iteration      1(   2)  ---------------------------------------


     EDDAV:  cpu time   13.2450: real time   13.4599
 BZINTS: Fermi energy: 10.761736;272.000000 electrons
         Band energy:1958.953344;  BLOECHL correction: -0.016710
       DOS:  cpu time    0.0770: real time    0.0777
    --------------------------------------------
      LOOP:  cpu time   13.3220: real time   13.5376

 eigenvalue-minimisations  : 11424
 total energy-change (2. order) :-0.2449814E+04  (-0.2299533E+04)
 number of electron     272.0000000 magnetization      80.0000000
 augmentation part      272.0000000 magnetization      80.0000000

 Free energy of the ion-electron system (eV)
  ---------------------------------------------------
  alpha Z        PSCENC =      1846.49885247
  Ewald energy   TEWEN  =    -21359.62396939
  -Hartree energ DENC   =     -4922.45808687
  -exchange      EXHF   =         0.00000000
  -V(xc)+E(xc)   XCENC  =       374.26488798
  PAW double counting   =     20992.88779333   -21713.01258880
  entropy T*S    EENTRO =         0.00000000
  eigenvalues    EBANDS =      1958.95334399
  atomic energy  EATOM  =     22884.87169210
  Solvation  Ediel_sol  =         0.00000000
  ---------------------------------------------------
  free energy    TOTEN  =        62.38192482 eV

  energy without entropy =       62.38192482  energy(sigma->0) =       62.38192482


--------------------------------------------------------------------------------------------------------




--------------------------------------- Iteration      1(   3)  ---------------------------------------


     EDDAV:  cpu time   13.3150: real time   13.5624
 BZINTS: Fermi energy:  8.876336;272.000000 electrons
         Band energy:1643.238213;  BLOECHL correction: -0.057281
       DOS:  cpu time    0.0760: real time    0.0767
    --------------------------------------------
      LOOP:  cpu time   13.3910: real time   13.6391

 eigenvalue-minimisations  : 11424
 total energy-change (2. order) :-0.3157151E+03  (-0.2484739E+03)
 number of electron     272.0000000 magnetization      80.0000000
 augmentation part      272.0000000 magnetization      80.0000000

 Free energy of the ion-electron system (eV)
  ---------------------------------------------------
  alpha Z        PSCENC =      1846.49885247
  Ewald energy   TEWEN  =    -21359.62396939
  -Hartree energ DENC   =     -4922.45808687
  -exchange      EXHF   =         0.00000000
  -V(xc)+E(xc)   XCENC  =       374.26488798
  PAW double counting   =     20992.88779333   -21713.01258880
  entropy T*S    EENTRO =         0.00000000
  eigenvalues    EBANDS =      1643.23821283
  atomic energy  EATOM  =     22884.87169210
  Solvation  Ediel_sol  =         0.00000000
  ---------------------------------------------------
  free energy    TOTEN  =      -253.33320635 eV

  energy without entropy =     -253.33320635  energy(sigma->0) =     -253.33320635


--------------------------------------------------------------------------------------------------------




--------------------------------------- Iteration      1(   4)  ---------------------------------------


     EDDAV:  cpu time   14.0569: real time   14.2600
 BZINTS: Fermi energy:  8.802756;272.000000 electrons
         Band energy:1626.635871;  BLOECHL correction: -0.054150
       DOS:  cpu time    0.0730: real time    0.0742
    --------------------------------------------
      LOOP:  cpu time   14.1299: real time   14.3342

 eigenvalue-minimisations  : 12276
 total energy-change (2. order) :-0.1660234E+02  (-0.1590480E+02)
 number of electron     272.0000000 magnetization      80.0000000
 augmentation part      272.0000000 magnetization      80.0000000

 Free energy of the ion-electron system (eV)
  ---------------------------------------------------
  alpha Z        PSCENC =      1846.49885247
  Ewald energy   TEWEN  =    -21359.62396939
  -Hartree energ DENC   =     -4922.45808687
  -exchange      EXHF   =         0.00000000
  -V(xc)+E(xc)   XCENC  =       374.26488798
  PAW double counting   =     20992.88779333   -21713.01258880
  entropy T*S    EENTRO =         0.00000000
  eigenvalues    EBANDS =      1626.63587077
  atomic energy  EATOM  =     22884.87169210
  Solvation  Ediel_sol  =         0.00000000
  ---------------------------------------------------
  free energy    TOTEN  =      -269.93554840 eV

  energy without entropy =     -269.93554840  energy(sigma->0) =     -269.93554840


--------------------------------------------------------------------------------------------------------




--------------------------------------- Iteration      1(   5)  ---------------------------------------


     EDDAV:  cpu time   14.5968: real time   14.8007
 BZINTS: Fermi energy:  8.801773;272.000000 electrons
         Band energy:1626.421308;  BLOECHL correction: -0.054226
       DOS:  cpu time    0.0730: real time    0.0731
    CHARGE:  cpu time    0.3879: real time    0.3892
    MIXING:  cpu time    0.0020: real time    0.0020
    --------------------------------------------
      LOOP:  cpu time   15.0597: real time   15.2650

 eigenvalue-minimisations  : 12693
 total energy-change (2. order) :-0.2145624E+00  (-0.2139967E+00)
 number of electron     271.9999937 magnetization      63.8707279
 augmentation part      131.1528545 magnetization      48.3179989

 Broyden mixing:
  rms(total) = 0.62231E+01    rms(broyden)= 0.62229E+01
  rms(prec ) = 0.81223E+01
  weight for this iteration     100.00

 Free energy of the ion-electron system (eV)
  ---------------------------------------------------
  alpha Z        PSCENC =      1846.49885247
  Ewald energy   TEWEN  =    -21359.62396939
  -Hartree energ DENC   =     -4922.45808687
  -exchange      EXHF   =         0.00000000
  -V(xc)+E(xc)   XCENC  =       374.26488798
  PAW double counting   =     20992.88779333   -21713.01258880
  entropy T*S    EENTRO =         0.00000000
  eigenvalues    EBANDS =      1626.42130842
  atomic energy  EATOM  =     22884.87169210
  Solvation  Ediel_sol  =         0.00000000
  ---------------------------------------------------
  free energy    TOTEN  =      -270.15011076 eV

  energy without entropy =     -270.15011076  energy(sigma->0) =     -270.15011076


--------------------------------------------------------------------------------------------------------




--------------------------------------- Iteration      1(   6)  ---------------------------------------


    POTLOK:  cpu time    0.0770: real time    0.0777
    SETDIJ:  cpu time    0.0190: real time    0.0181
    EDDIAG:  cpu time    1.7517: real time    1.7927
  RMM-DIIS:  cpu time    8.8867: real time    9.0375
    ORTHCH:  cpu time    0.2890: real time    0.2903
 BZINTS: Fermi energy:  5.993028;272.000000 electrons
         Band energy: 974.971936;  BLOECHL correction: -0.021668
       DOS:  cpu time    0.0810: real time    0.0810
    CHARGE:  cpu time    0.3809: real time    0.3810
    MIXING:  cpu time    0.0020: real time    0.0018
    --------------------------------------------
      LOOP:  cpu time   11.4873: real time   11.6801

 eigenvalue-minimisations  : 11682
 total energy-change (2. order) : 0.1979798E+02  (-0.2942736E+02)
 number of electron     271.9999923 magnetization      61.3390074
 augmentation part      155.7714997 magnetization      48.2284984

 Broyden mixing:
  rms(total) = 0.52049E+01    rms(broyden)= 0.52048E+01
  rms(prec ) = 0.77905E+01
  weight for this iteration     100.00

 eigenvalues of (default mixing * dielectric matrix)
  average eigenvalue GAMMA=   0.4792
  0.4792

 Free energy of the ion-electron system (eV)
  ---------------------------------------------------
  alpha Z        PSCENC =      1846.49885247
  Ewald energy   TEWEN  =    -21359.62396939
  -Hartree energ DENC   =     -4304.39723397
  -exchange      EXHF   =         0.00000000
  -V(xc)+E(xc)   XCENC  =       336.99775354
  PAW double counting   =     22722.73558563   -23352.40674986
  entropy T*S    EENTRO =         0.00000000
  eigenvalues    EBANDS =       974.97193601
  atomic energy  EATOM  =     22884.87169210
  Solvation  Ediel_sol  =         0.00000000
  ---------------------------------------------------
  free energy    TOTEN  =      -250.35213347 eV

  energy without entropy =     -250.35213347  energy(sigma->0) =     -250.35213347


--------------------------------------------------------------------------------------------------------




--------------------------------------- Iteration      1(   7)  ---------------------------------------


    POTLOK:  cpu time    0.0770: real time    0.0781
    SETDIJ:  cpu time    0.0190: real time    0.0183
    EDDIAG:  cpu time    1.6847: real time    1.7093
  RMM-DIIS:  cpu time    9.1896: real time    9.3324
    ORTHCH:  cpu time    0.2890: real time    0.2899
 BZINTS: Fermi energy:  6.999527;272.000000 electrons
         Band energy:1104.705394;  BLOECHL correction: -0.009017
       DOS:  cpu time    0.0810: real time    0.0804
    CHARGE:  cpu time    0.3809: real time    0.3815
    MIXING:  cpu time    0.0020: real time    0.0019
    --------------------------------------------
      LOOP:  cpu time   11.7232: real time   11.8919

 eigenvalue-minimisations  : 12104
 total energy-change (2. order) :-0.6156792E+02  (-0.7816911E+01)
 number of electron     271.9999980 magnetization      57.4087862
 augmentation part      147.6164718 magnetization      50.0152558

 Broyden mixing:
  rms(total) = 0.12586E+02    rms(broyden)= 0.12585E+02
  rms(prec ) = 0.23488E+02
  weight for this iteration     100.00

 eigenvalues of (default mixing * dielectric matrix)
  average eigenvalue GAMMA=   0.4129
  0.6822  0.1435

 Free energy of the ion-electron system (eV)
  ---------------------------------------------------
  alpha Z        PSCENC =      1846.49885247
  Ewald energy   TEWEN  =    -21359.62396939
  -Hartree energ DENC   =     -4439.51790027
  -exchange      EXHF   =         0.00000000
  -V(xc)+E(xc)   XCENC  =       346.45865281
  PAW double counting   =     23627.19715740   -24322.50993514
  entropy T*S    EENTRO =         0.00000000
  eigenvalues    EBANDS =      1104.70539441
  atomic energy  EATOM  =     22884.87169210
  Solvation  Ediel_sol  =         0.00000000
  ---------------------------------------------------
  free energy    TOTEN  =      -311.92005561 eV

  energy without entropy =     -311.92005561  energy(sigma->0) =     -311.92005561


--------------------------------------------------------------------------------------------------------




--------------------------------------- Iteration      1(   8)  ---------------------------------------


    POTLOK:  cpu time    0.0770: real time    0.0775
    SETDIJ:  cpu time    0.0180: real time    0.0180
    EDDIAG:  cpu time    1.6857: real time    1.7100
  RMM-DIIS:  cpu time    9.5046: real time    9.7548
    ORTHCH:  cpu time    0.2900: real time    0.2908
 BZINTS: Fermi energy:  6.807055;272.000000 electrons
         Band energy:1158.753682;  BLOECHL correction: -0.014603
       DOS:  cpu time    0.0780: real time    0.0777
    CHARGE:  cpu time    0.4059: real time    0.4066
    MIXING:  cpu time    0.0020: real time    0.0020
    --------------------------------------------
      LOOP:  cpu time   12.0612: real time   12.3375

 eigenvalue-minimisations  : 12036
 total energy-change (2. order) : 0.5764147E+02  (-0.3694198E+01)
 number of electron     271.9999924 magnetization      56.4447622
 augmentation part      148.5478123 magnetization      44.9843284

 Broyden mixing:
  rms(total) = 0.53825E+01    rms(broyden)= 0.53822E+01
  rms(prec ) = 0.92829E+01
  weight for this iteration     100.00

 eigenvalues of (default mixing * dielectric matrix)
  average eigenvalue GAMMA=   0.4011
  0.7681  0.3209  0.1145

 Free energy of the ion-electron system (eV)
  ---------------------------------------------------
  alpha Z        PSCENC =      1846.49885247
  Ewald energy   TEWEN  =    -21359.62396939
  -Hartree energ DENC   =     -4416.52233663
  -exchange      EXHF   =         0.00000000
  -V(xc)+E(xc)   XCENC  =       344.11872696
  PAW double counting   =     24113.09406511   -24825.46929476
  entropy T*S    EENTRO =         0.00000000
  eigenvalues    EBANDS =      1158.75368240
  atomic energy  EATOM  =     22884.87169210
  Solvation  Ediel_sol  =         0.00000000
  ---------------------------------------------------
  free energy    TOTEN  =      -254.27858173 eV

  energy without entropy =     -254.27858173  energy(sigma->0) =     -254.27858173


--------------------------------------------------------------------------------------------------------




--------------------------------------- Iteration      1(   9)  ---------------------------------------


    POTLOK:  cpu time    0.0770: real time    0.0777
    SETDIJ:  cpu time    0.0190: real time    0.0181
    EDDIAG:  cpu time    1.7037: real time    1.7070
  RMM-DIIS:  cpu time    9.0206: real time    9.0409
    ORTHCH:  cpu time    0.2920: real time    0.2929
 BZINTS: Fermi energy:  6.711756;272.000000 electrons
         Band energy:1188.292343;  BLOECHL correction: -0.018995
       DOS:  cpu time    0.0760: real time    0.0756
    CHARGE:  cpu time    0.3829: real time    0.3829
    MIXING:  cpu time    0.0020: real time    0.0020
    --------------------------------------------
      LOOP:  cpu time   11.5732: real time   11.5972

 eigenvalue-minimisations  : 11679
 total energy-change (2. order) : 0.1383361E+02  (-0.1293509E+01)
 number of electron     271.9999932 magnetization      54.7766594
 augmentation part      148.0360479 magnetization      43.4266941

 Broyden mixing:
  rms(total) = 0.24514E+01    rms(broyden)= 0.24512E+01
  rms(prec ) = 0.41783E+01
  weight for this iteration     100.00

 eigenvalues of (default mixing * dielectric matrix)
  average eigenvalue GAMMA=   0.4510
  1.0303  0.5270  0.1232  0.1232

 Free energy of the ion-electron system (eV)
  ---------------------------------------------------
  alpha Z        PSCENC =      1846.49885247
  Ewald energy   TEWEN  =    -21359.62396939
  -Hartree energ DENC   =     -4422.85010798
  -exchange      EXHF   =         0.00000000
  -V(xc)+E(xc)   XCENC  =       344.52312459
  PAW double counting   =     24331.86388669   -25054.02079375
  entropy T*S    EENTRO =         0.00000000
  eigenvalues    EBANDS =      1188.29234334
  atomic energy  EATOM  =     22884.87169210
  Solvation  Ediel_sol  =         0.00000000
  ---------------------------------------------------
  free energy    TOTEN  =      -240.44497193 eV

  energy without entropy =     -240.44497193  energy(sigma->0) =     -240.44497193


--------------------------------------------------------------------------------------------------------




--------------------------------------- Iteration      1(  10)  ---------------------------------------


    POTLOK:  cpu time    0.0770: real time    0.0776
    SETDIJ:  cpu time    0.0190: real time    0.0182
    EDDIAG:  cpu time    1.7027: real time    1.7030
  RMM-DIIS:  cpu time    9.1196: real time    9.1352
    ORTHCH:  cpu time    0.3090: real time    0.3100
 BZINTS: Fermi energy:  6.733198;272.000000 electrons
         Band energy:1186.316017;  BLOECHL correction: -0.017622
       DOS:  cpu time    0.0720: real time    0.0725
    CHARGE:  cpu time    0.3859: real time    0.3855
    MIXING:  cpu time    0.0030: real time    0.0020
    --------------------------------------------
      LOOP:  cpu time   11.6882: real time   11.7041

 eigenvalue-minimisations  : 11687
 total energy-change (2. order) :-0.5660789E+01  (-0.9129989E+00)
 number of electron     271.9999935 magnetization      53.5754466
 augmentation part      147.6805508 magnetization      43.7356508

 Broyden mixing:
  rms(total) = 0.44438E+01    rms(broyden)= 0.44437E+01
  rms(prec ) = 0.78561E+01
  weight for this iteration     100.00

 eigenvalues of (default mixing * dielectric matrix)
  average eigenvalue GAMMA=   0.4205
  1.1504  0.5382  0.1919  0.1111  0.1111

 Free energy of the ion-electron system (eV)
  ---------------------------------------------------
  alpha Z        PSCENC =      1846.49885247
  Ewald energy   TEWEN  =    -21359.62396939
  -Hartree energ DENC   =     -4410.93925528
  -exchange      EXHF   =         0.00000000
  -V(xc)+E(xc)   XCENC  =       344.84307673
  PAW double counting   =     24845.81555432   -25583.88772811
  entropy T*S    EENTRO =         0.00000000
  eigenvalues    EBANDS =      1186.31601664
  atomic energy  EATOM  =     22884.87169210
  Solvation  Ediel_sol  =         0.00000000
  ---------------------------------------------------
  free energy    TOTEN  =      -246.10576052 eV

  energy without entropy =     -246.10576052  energy(sigma->0) =     -246.10576052


--------------------------------------------------------------------------------------------------------




--------------------------------------- Iteration      1(  11)  ---------------------------------------


    POTLOK:  cpu time    0.0770: real time    0.0777
    SETDIJ:  cpu time    0.0180: real time    0.0181
    EDDIAG:  cpu time    1.6957: real time    1.6968
  RMM-DIIS:  cpu time    8.9486: real time    8.9697
    ORTHCH:  cpu time    0.2910: real time    0.2913
 BZINTS: Fermi energy:  6.596990;272.000000 electrons
         Band energy:1180.626889;  BLOECHL correction: -0.034751
       DOS:  cpu time    0.0730: real time    0.0731
    CHARGE:  cpu time    0.3849: real time    0.3853
    MIXING:  cpu time    0.0030: real time    0.0022
    --------------------------------------------
      LOOP:  cpu time   11.4913: real time   11.5142

 eigenvalue-minimisations  : 11603
 total energy-change (2. order) : 0.6248962E+01  (-0.6336691E+00)
 number of electron     271.9999932 magnetization      54.0726270
 augmentation part      148.4715556 magnetization      43.2998773

 Broyden mixing:
  rms(total) = 0.17091E+01    rms(broyden)= 0.17090E+01
  rms(prec ) = 0.26210E+01
  weight for this iteration     100.00

 eigenvalues of (default mixing * dielectric matrix)
  average eigenvalue GAMMA=   0.4140
  1.2243  0.4570  0.4570  0.1303  0.1076  0.1076

 Free energy of the ion-electron system (eV)
  ---------------------------------------------------
  alpha Z        PSCENC =      1846.49885247
  Ewald energy   TEWEN  =    -21359.62396939
  -Hartree energ DENC   =     -4391.02279947
  -exchange      EXHF   =         0.00000000
  -V(xc)+E(xc)   XCENC  =       344.32302237
  PAW double counting   =     25187.08567060   -25932.61615626
  entropy T*S    EENTRO =         0.00000000
  eigenvalues    EBANDS =      1180.62688880
  atomic energy  EATOM  =     22884.87169210
  Solvation  Ediel_sol  =         0.00000000
  ---------------------------------------------------
  free energy    TOTEN  =      -239.85679879 eV

  energy without entropy =     -239.85679879  energy(sigma->0) =     -239.85679879


--------------------------------------------------------------------------------------------------------




--------------------------------------- Iteration      1(  12)  ---------------------------------------


    POTLOK:  cpu time    0.0760: real time    0.0773
    SETDIJ:  cpu time    0.0190: real time    0.0181
    EDDIAG:  cpu time    1.7147: real time    1.7169
  RMM-DIIS:  cpu time    9.0736: real time    9.0908
    ORTHCH:  cpu time    0.2940: real time    0.2943
 BZINTS: Fermi energy:  6.580726;272.000000 electrons
         Band energy:1174.640353;  BLOECHL correction: -0.022897
       DOS:  cpu time    0.0770: real time    0.0777
    CHARGE:  cpu time    0.3839: real time    0.3837
    MIXING:  cpu time    0.0030: real time    0.0022
    --------------------------------------------
      LOOP:  cpu time   11.6412: real time   11.6610

 eigenvalue-minimisations  : 11746
 total energy-change (2. order) : 0.6691148E+00  (-0.1575123E+00)
 number of electron     271.9999932 magnetization      54.8639300
 augmentation part      148.8310528 magnetization      44.1975226

 Broyden mixing:
  rms(total) = 0.11806E+01    rms(broyden)= 0.11805E+01
  rms(prec ) = 0.17275E+01
  weight for this iteration     100.00

 eigenvalues of (default mixing * dielectric matrix)
  average eigenvalue GAMMA=   0.4103
  1.2772  0.5208  0.5208  0.1989  0.1167  0.1167  0.1210

 Free energy of the ion-electron system (eV)
  ---------------------------------------------------
  alpha Z        PSCENC =      1846.49885247
  Ewald energy   TEWEN  =    -21359.62396939
  -Hartree energ DENC   =     -4382.81915794
  -exchange      EXHF   =         0.00000000
  -V(xc)+E(xc)   XCENC  =       345.14787493
  PAW double counting   =     25321.66375452   -26069.56708415
  entropy T*S    EENTRO =         0.00000000
  eigenvalues    EBANDS =      1174.64035349
  atomic energy  EATOM  =     22884.87169210
  Solvation  Ediel_sol  =         0.00000000
  ---------------------------------------------------
  free energy    TOTEN  =      -239.18768396 eV

  energy without entropy =     -239.18768396  energy(sigma->0) =     -239.18768396


--------------------------------------------------------------------------------------------------------




--------------------------------------- Iteration      1(  13)  ---------------------------------------


    POTLOK:  cpu time    0.0760: real time    0.0772
    SETDIJ:  cpu time    0.0190: real time    0.0183
    EDDIAG:  cpu time    1.6957: real time    1.6969
  RMM-DIIS:  cpu time    9.1266: real time    9.2484
    ORTHCH:  cpu time    0.2910: real time    0.2918
 BZINTS: Fermi energy:  6.578709;272.000000 electrons
         Band energy:1173.612461;  BLOECHL correction: -0.027325
       DOS:  cpu time    0.0770: real time    0.0775
    CHARGE:  cpu time    0.3839: real time    0.3836
    MIXING:  cpu time    0.0030: real time    0.0024
    --------------------------------------------
      LOOP:  cpu time   11.6722: real time   11.7961

 eigenvalue-minimisations  : 11901
 total energy-change (2. order) : 0.8007731E-01  (-0.4471730E-01)
 number of electron     271.9999932 magnetization      55.5159105
 augmentation part      148.9086007 magnetization      44.9703108

 Broyden mixing:
  rms(total) = 0.98302E+00    rms(broyden)= 0.98300E+00
  rms(prec ) = 0.14941E+01
  weight for this iteration     100.00

 eigenvalues of (default mixing * dielectric matrix)
  average eigenvalue GAMMA=   0.4332
  1.3108  0.5893  0.5893  0.4915  0.1311  0.1311  0.1114  0.1114

 Free energy of the ion-electron system (eV)
  ---------------------------------------------------
  alpha Z        PSCENC =      1846.49885247
  Ewald energy   TEWEN  =    -21359.62396939
  -Hartree energ DENC   =     -4379.27881783
  -exchange      EXHF   =         0.00000000
  -V(xc)+E(xc)   XCENC  =       346.45775737
  PAW double counting   =     25471.84461688   -26223.49019899
  entropy T*S    EENTRO =         0.00000000
  eigenvalues    EBANDS =      1173.61246076
  atomic energy  EATOM  =     22884.87169210
  Solvation  Ediel_sol  =         0.00000000
  ---------------------------------------------------
  free energy    TOTEN  =      -239.10760664 eV

  energy without entropy =     -239.10760664  energy(sigma->0) =     -239.10760664


--------------------------------------------------------------------------------------------------------




--------------------------------------- Iteration      1(  14)  ---------------------------------------


    POTLOK:  cpu time    0.0770: real time    0.0774
    SETDIJ:  cpu time    0.0180: real time    0.0183
    EDDIAG:  cpu time    1.7047: real time    1.7067
  RMM-DIIS:  cpu time    9.0566: real time    9.0740
    ORTHCH:  cpu time    0.2900: real time    0.2905
 BZINTS: Fermi energy:  6.586798;272.000000 electrons
         Band energy:1173.989989;  BLOECHL correction: -0.030320
       DOS:  cpu time    0.0720: real time    0.0718
    CHARGE:  cpu time    0.3979: real time    0.3977
    MIXING:  cpu time    0.0020: real time    0.0025
    --------------------------------------------
      LOOP:  cpu time   11.6182: real time   11.6389

 eigenvalue-minimisations  : 11816
 total energy-change (2. order) :-0.5426458E-01  (-0.3001606E-01)
 number of electron     271.9999932 magnetization      57.3600339
 augmentation part      148.8608639 magnetization      46.9124524

 Broyden mixing:
  rms(total) = 0.87419E+00    rms(broyden)= 0.87418E+00
  rms(prec ) = 0.12786E+01
  weight for this iteration     100.00

 eigenvalues of (default mixing * dielectric matrix)
  average eigenvalue GAMMA=   0.4922
  1.3830  0.9303  0.9303  0.5561  0.1518  0.1419  0.1127  0.1127  0.1113

 Free energy of the ion-electron system (eV)
  ---------------------------------------------------
  alpha Z        PSCENC =      1846.49885247
  Ewald energy   TEWEN  =    -21359.62396939
  -Hartree energ DENC   =     -4377.73490322
  -exchange      EXHF   =         0.00000000
  -V(xc)+E(xc)   XCENC  =       347.30530963
  PAW double counting   =     25581.64517612   -26336.11401759
  entropy T*S    EENTRO =         0.00000000
  eigenvalues    EBANDS =      1173.98998866
  atomic energy  EATOM  =     22884.87169210
  Solvation  Ediel_sol  =         0.00000000
  ---------------------------------------------------
  free energy    TOTEN  =      -239.16187122 eV

  energy without entropy =     -239.16187122  energy(sigma->0) =     -239.16187122


--------------------------------------------------------------------------------------------------------




--------------------------------------- Iteration      1(  15)  ---------------------------------------


    POTLOK:  cpu time    0.0780: real time    0.0775
    SETDIJ:  cpu time    0.0180: real time    0.0181
    EDDIAG:  cpu time    1.7027: real time    1.7045
  RMM-DIIS:  cpu time    9.1036: real time    9.1612
    ORTHCH:  cpu time    0.2890: real time    0.2908
 BZINTS: Fermi energy:  6.595243;272.000000 electrons
         Band energy:1173.852251;  BLOECHL correction: -0.042078
       DOS:  cpu time    0.0760: real time    0.0752
    CHARGE:  cpu time    0.3839: real time    0.3837
    MIXING:  cpu time    0.0030: real time    0.0028
    --------------------------------------------
      LOOP:  cpu time   11.6542: real time   11.7139

 eigenvalue-minimisations  : 11679
 total energy-change (2. order) :-0.1419695E+00  (-0.3614446E-01)
 number of electron     271.9999934 magnetization      59.2527440
 augmentation part      148.9412179 magnetization      48.5581025

 Broyden mixing:
  rms(total) = 0.82216E+00    rms(broyden)= 0.82214E+00
  rms(prec ) = 0.11530E+01
  weight for this iteration     100.00

 eigenvalues of (default mixing * dielectric matrix)
  average eigenvalue GAMMA=   0.4940
  1.4178  1.0606  1.0606  0.5723  0.2151  0.1391  0.1391  0.1139  0.1139  0.1071

 Free energy of the ion-electron system (eV)
  ---------------------------------------------------
  alpha Z        PSCENC =      1846.49885247
  Ewald energy   TEWEN  =    -21359.62396939
  -Hartree energ DENC   =     -4373.65313317
  -exchange      EXHF   =         0.00000000
  -V(xc)+E(xc)   XCENC  =       349.06147013
  PAW double counting   =     25832.21054789   -26592.52155141
  entropy T*S    EENTRO =         0.00000000
  eigenvalues    EBANDS =      1173.85225066
  atomic energy  EATOM  =     22884.87169210
  Solvation  Ediel_sol  =         0.00000000
  ---------------------------------------------------
  free energy    TOTEN  =      -239.30384073 eV

  energy without entropy =     -239.30384073  energy(sigma->0) =     -239.30384073


--------------------------------------------------------------------------------------------------------




--------------------------------------- Iteration      1(  16)  ---------------------------------------


    POTLOK:  cpu time    0.0960: real time    0.0971
    SETDIJ:  cpu time    0.0190: real time    0.0180
    EDDIAG:  cpu time    1.6657: real time    1.6664
  RMM-DIIS:  cpu time    8.9936: real time    9.0163
    ORTHCH:  cpu time    0.2900: real time    0.2905
 BZINTS: Fermi energy:  6.614330;272.000000 electrons
         Band energy:1174.097132;  BLOECHL correction: -0.044142
       DOS:  cpu time    0.0770: real time    0.0768
    CHARGE:  cpu time    0.3869: real time    0.3865
    MIXING:  cpu time    0.0030: real time    0.0029
    --------------------------------------------
      LOOP:  cpu time   11.5312: real time   11.5545

 eigenvalue-minimisations  : 11668
 total energy-change (2. order) : 0.5786451E-01  (-0.3184062E-01)
 number of electron     271.9999933 magnetization      61.2299790
 augmentation part      148.9062182 magnetization      50.4104410

 Broyden mixing:
  rms(total) = 0.51975E+00    rms(broyden)= 0.51973E+00
  rms(prec ) = 0.63617E+00
  weight for this iteration     100.00

 eigenvalues of (default mixing * dielectric matrix)
  average eigenvalue GAMMA=   0.5283
  1.3550  1.3550  1.2818  0.5465  0.4832  0.1736  0.1416  0.1416  0.1127  0.1127
  0.1074

 Free energy of the ion-electron system (eV)
  ---------------------------------------------------
  alpha Z        PSCENC =      1846.49885247
  Ewald energy   TEWEN  =    -21359.62396939
  -Hartree energ DENC   =     -4370.98703727
  -exchange      EXHF   =         0.00000000
  -V(xc)+E(xc)   XCENC  =       350.86660616
  PAW double counting   =     26035.75730062   -26800.72655256
  entropy T*S    EENTRO =         0.00000000
  eigenvalues    EBANDS =      1174.09713165
  atomic energy  EATOM  =     22884.87169210
  Solvation  Ediel_sol  =         0.00000000
  ---------------------------------------------------
  free energy    TOTEN  =      -239.24597622 eV

  energy without entropy =     -239.24597622  energy(sigma->0) =     -239.24597622


--------------------------------------------------------------------------------------------------------




--------------------------------------- Iteration      1(  17)  ---------------------------------------


    POTLOK:  cpu time    0.0770: real time    0.0776
    SETDIJ:  cpu time    0.0180: real time    0.0181
    EDDIAG:  cpu time    1.7007: real time    1.7030
  RMM-DIIS:  cpu time    9.1376: real time    9.1518
    ORTHCH:  cpu time    0.2890: real time    0.2899
 BZINTS: Fermi energy:  6.636805;272.000000 electrons
         Band energy:1171.915511;  BLOECHL correction: -0.035946
       DOS:  cpu time    0.0750: real time    0.0761
    CHARGE:  cpu time    0.3819: real time    0.3847
    MIXING:  cpu time    0.0030: real time    0.0030
    --------------------------------------------
      LOOP:  cpu time   11.6822: real time   11.7041

 eigenvalue-minimisations  : 11806
 total energy-change (2. order) :-0.1530928E+00  (-0.1485826E-01)
 number of electron     271.9999932 magnetization      62.8524408
 augmentation part      148.9627686 magnetization      51.9647639

 Broyden mixing:
  rms(total) = 0.50629E+00    rms(broyden)= 0.50628E+00
  rms(prec ) = 0.83583E+00
  weight for this iteration     100.00

 eigenvalues of (default mixing * dielectric matrix)
  average eigenvalue GAMMA=   0.5492
  1.5464  1.4097  1.4097  0.5759  0.5759  0.3054  0.1130  0.1130  0.1522  0.1410
  0.1410  0.1075

 Free energy of the ion-electron system (eV)
  ---------------------------------------------------
  alpha Z        PSCENC =      1846.49885247
  Ewald energy   TEWEN  =    -21359.62396939
  -Hartree energ DENC   =     -4368.11084363
  -exchange      EXHF   =         0.00000000
  -V(xc)+E(xc)   XCENC  =       352.43836135
  PAW double counting   =     26172.00249271   -26939.39116586
  entropy T*S    EENTRO =         0.00000000
  eigenvalues    EBANDS =      1171.91551125
  atomic energy  EATOM  =     22884.87169210
  Solvation  Ediel_sol  =         0.00000000
  ---------------------------------------------------
  free energy    TOTEN  =      -239.39906899 eV

  energy without entropy =     -239.39906899  energy(sigma->0) =     -239.39906899


--------------------------------------------------------------------------------------------------------




--------------------------------------- Iteration      1(  18)  ---------------------------------------


    POTLOK:  cpu time    0.0770: real time    0.0774
    SETDIJ:  cpu time    0.0180: real time    0.0182
    EDDIAG:  cpu time    1.7097: real time    1.7125
  RMM-DIIS:  cpu time    9.0496: real time    9.0646
    ORTHCH:  cpu time    0.2970: real time    0.2981
 BZINTS: Fermi energy:  6.652523;272.000000 electrons
         Band energy:1171.388227;  BLOECHL correction: -0.032140
       DOS:  cpu time    0.0780: real time    0.0775
    CHARGE:  cpu time    0.3999: real time    0.3996
    MIXING:  cpu time    0.0030: real time    0.0032
    --------------------------------------------
      LOOP:  cpu time   11.6322: real time   11.6510

 eigenvalue-minimisations  : 11743
 total energy-change (2. order) : 0.1383641E-01  (-0.1433621E-01)
 number of electron     271.9999933 magnetization      63.0471965
 augmentation part      148.9409275 magnetization      52.1607545

 Broyden mixing:
  rms(total) = 0.34430E+00    rms(broyden)= 0.34428E+00
  rms(prec ) = 0.57940E+00
  weight for this iteration     100.00

 eigenvalues of (default mixing * dielectric matrix)
  average eigenvalue GAMMA=   0.6006
  1.9315  1.5648  1.5648  0.6643  0.6643  0.5069  0.1129  0.1129  0.1073  0.1606
  0.1526  0.1326  0.1326

 Free energy of the ion-electron system (eV)
  ---------------------------------------------------
  alpha Z        PSCENC =      1846.49885247
  Ewald energy   TEWEN  =    -21359.62396939
  -Hartree energ DENC   =     -4366.82763768
  -exchange      EXHF   =         0.00000000
  -V(xc)+E(xc)   XCENC  =       353.67446560
  PAW double counting   =     26279.07886420   -27048.44572657
  entropy T*S    EENTRO =         0.00000000
  eigenvalues    EBANDS =      1171.38822669
  atomic energy  EATOM  =     22884.87169210
  Solvation  Ediel_sol  =         0.00000000
  ---------------------------------------------------
  free energy    TOTEN  =      -239.38523258 eV

  energy without entropy =     -239.38523258  energy(sigma->0) =     -239.38523258


--------------------------------------------------------------------------------------------------------




--------------------------------------- Iteration      1(  19)  ---------------------------------------


    POTLOK:  cpu time    0.0770: real time    0.0776
    SETDIJ:  cpu time    0.0180: real time    0.0181
    EDDIAG:  cpu time    1.7017: real time    1.7044
  RMM-DIIS:  cpu time    8.9936: real time    9.0316
    ORTHCH:  cpu time    0.2900: real time    0.2907
 BZINTS: Fermi energy:  6.648854;272.000000 electrons
         Band energy:1170.631860;  BLOECHL correction: -0.034037
       DOS:  cpu time    0.0790: real time    0.0794
    CHARGE:  cpu time    0.3839: real time    0.3837
    MIXING:  cpu time    0.0040: real time    0.0034
    --------------------------------------------
      LOOP:  cpu time   11.5472: real time   11.5888

 eigenvalue-minimisations  : 11658
 total energy-change (2. order) :-0.7013518E-01  (-0.1073846E-01)
 number of electron     271.9999934 magnetization      62.9833789
 augmentation part      148.9648494 magnetization      51.9723264

 Broyden mixing:
  rms(total) = 0.44874E+00    rms(broyden)= 0.44874E+00
  rms(prec ) = 0.76306E+00
  weight for this iteration     100.00

 eigenvalues of (default mixing * dielectric matrix)
  average eigenvalue GAMMA=   0.5839
  1.9616  1.6278  1.6278  0.6767  0.6767  0.5187  0.1755  0.1755  0.1129  0.1129
  0.1382  0.1382  0.1074  0.1246

 Free energy of the ion-electron system (eV)
  ---------------------------------------------------
  alpha Z        PSCENC =      1846.49885247
  Ewald energy   TEWEN  =    -21359.62396939
  -Hartree energ DENC   =     -4365.51420376
  -exchange      EXHF   =         0.00000000
  -V(xc)+E(xc)   XCENC  =       353.24952878
  PAW double counting   =     26311.17534680   -27080.74447466
  entropy T*S    EENTRO =         0.00000000
  eigenvalues    EBANDS =      1170.63185990
  atomic energy  EATOM  =     22884.87169210
  Solvation  Ediel_sol  =         0.00000000
  ---------------------------------------------------
  free energy    TOTEN  =      -239.45536776 eV

  energy without entropy =     -239.45536776  energy(sigma->0) =     -239.45536776


--------------------------------------------------------------------------------------------------------




--------------------------------------- Iteration      1(  20)  ---------------------------------------


    POTLOK:  cpu time    0.0770: real time    0.0777
    SETDIJ:  cpu time    0.0190: real time    0.0182
    EDDIAG:  cpu time    1.6947: real time    1.6975
  RMM-DIIS:  cpu time    8.9796: real time    9.0073
    ORTHCH:  cpu time    0.2920: real time    0.2921
 BZINTS: Fermi energy:  6.641746;272.000000 electrons
         Band energy:1170.332812;  BLOECHL correction: -0.033289
       DOS:  cpu time    0.0760: real time    0.0766
    CHARGE:  cpu time    0.3889: real time    0.3886
    MIXING:  cpu time    0.0040: real time    0.0036
    --------------------------------------------
      LOOP:  cpu time   11.5312: real time   11.5617

 eigenvalue-minimisations  : 11571
 total energy-change (2. order) : 0.9364547E-01  (-0.6453069E-02)
 number of electron     271.9999933 magnetization      63.5082664
 augmentation part      148.9972267 magnetization      52.4201141

 Broyden mixing:
  rms(total) = 0.15340E+00    rms(broyden)= 0.15339E+00
  rms(prec ) = 0.21651E+00
  weight for this iteration     100.00

 eigenvalues of (default mixing * dielectric matrix)
  average eigenvalue GAMMA=   0.6162
  2.2348  1.6621  1.6621  0.7424  0.7424  0.6341  0.5054  0.1710  0.1129  0.1129
  0.1556  0.1387  0.1387  0.1074  0.1231

 Free energy of the ion-electron system (eV)
  ---------------------------------------------------
  alpha Z        PSCENC =      1846.49885247
  Ewald energy   TEWEN  =    -21359.62396939
  -Hartree energ DENC   =     -4364.96638887
  -exchange      EXHF   =         0.00000000
  -V(xc)+E(xc)   XCENC  =       352.88042142
  PAW double counting   =     26315.82952755   -27085.18466969
  entropy T*S    EENTRO =         0.00000000
  eigenvalues    EBANDS =      1170.33281211
  atomic energy  EATOM  =     22884.87169210
  Solvation  Ediel_sol  =         0.00000000
  ---------------------------------------------------
  free energy    TOTEN  =      -239.36172230 eV

  energy without entropy =     -239.36172230  energy(sigma->0) =     -239.36172230


--------------------------------------------------------------------------------------------------------




--------------------------------------- Iteration      1(  21)  ---------------------------------------


    POTLOK:  cpu time    0.0760: real time    0.0772
    SETDIJ:  cpu time    0.0190: real time    0.0182
    EDDIAG:  cpu time    1.7567: real time    1.7574
  RMM-DIIS:  cpu time    9.0396: real time    9.0645
    ORTHCH:  cpu time    0.3140: real time    0.3142
 BZINTS: Fermi energy:  6.647935;272.000000 electrons
         Band energy:1170.344156;  BLOECHL correction: -0.033350
       DOS:  cpu time    0.0720: real time    0.0736
    CHARGE:  cpu time    0.3849: real time    0.3840
    MIXING:  cpu time    0.0040: real time    0.0036
    --------------------------------------------
      LOOP:  cpu time   11.6662: real time   11.6927

 eigenvalue-minimisations  : 11763
 total energy-change (2. order) :-0.1086238E-01  (-0.1985789E-02)
 number of electron     271.9999933 magnetization      63.8313714
 augmentation part      148.9835981 magnetization      52.7457005

 Broyden mixing:
  rms(total) = 0.16892E+00    rms(broyden)= 0.16892E+00
  rms(prec ) = 0.27278E+00
  weight for this iteration     100.00

 eigenvalues of (default mixing * dielectric matrix)
  average eigenvalue GAMMA=   0.5987
  2.3551  1.6228  1.6228  0.7914  0.7914  0.6380  0.5191  0.1790  0.1790  0.1129
  0.1129  0.1073  0.1422  0.1422  0.1410  0.1225

 Free energy of the ion-electron system (eV)
  ---------------------------------------------------
  alpha Z        PSCENC =      1846.49885247
  Ewald energy   TEWEN  =    -21359.62396939
  -Hartree energ DENC   =     -4364.83616366
  -exchange      EXHF   =         0.00000000
  -V(xc)+E(xc)   XCENC  =       353.30123783
  PAW double counting   =     26354.19166961   -27124.12005982
  entropy T*S    EENTRO =         0.00000000
  eigenvalues    EBANDS =      1170.34415618
  atomic energy  EATOM  =     22884.87169210
  Solvation  Ediel_sol  =         0.00000000
  ---------------------------------------------------
  free energy    TOTEN  =      -239.37258468 eV

  energy without entropy =     -239.37258468  energy(sigma->0) =     -239.37258468


--------------------------------------------------------------------------------------------------------




--------------------------------------- Iteration      1(  22)  ---------------------------------------


    POTLOK:  cpu time    0.0770: real time    0.0777
    SETDIJ:  cpu time    0.0190: real time    0.0182
    EDDIAG:  cpu time    1.6897: real time    1.6911
  RMM-DIIS:  cpu time    9.0586: real time    9.0760
    ORTHCH:  cpu time    0.2910: real time    0.2921
 BZINTS: Fermi energy:  6.649759;272.000000 electrons
         Band energy:1169.985628;  BLOECHL correction: -0.034599
       DOS:  cpu time    0.0720: real time    0.0733
    CHARGE:  cpu time    0.4059: real time    0.4102
    MIXING:  cpu time    0.0040: real time    0.0037
    --------------------------------------------
      LOOP:  cpu time   11.6172: real time   11.6424

 eigenvalue-minimisations  : 11837
 total energy-change (2. order) : 0.9904180E-02  (-0.1114746E-02)
 number of electron     271.9999933 magnetization      63.9017373
 augmentation part      148.9964646 magnetization      52.8049447

 Broyden mixing:
  rms(total) = 0.52149E-01    rms(broyden)= 0.52144E-01
  rms(prec ) = 0.72139E-01
  weight for this iteration     100.00

 eigenvalues of (default mixing * dielectric matrix)
  average eigenvalue GAMMA=   0.6135
  2.4339  1.4450  1.4450  1.0618  1.0618  0.6404  0.6404  0.4918  0.1731  0.1129
  0.1129  0.1074  0.1560  0.1502  0.1373  0.1373  0.1219

 Free energy of the ion-electron system (eV)
  ---------------------------------------------------
  alpha Z        PSCENC =      1846.49885247
  Ewald energy   TEWEN  =    -21359.62396939
  -Hartree energ DENC   =     -4364.54494581
  -exchange      EXHF   =         0.00000000
  -V(xc)+E(xc)   XCENC  =       353.54533024
  PAW double counting   =     26374.57781128   -27144.67307917
  entropy T*S    EENTRO =         0.00000000
  eigenvalues    EBANDS =      1169.98562778
  atomic energy  EATOM  =     22884.87169210
  Solvation  Ediel_sol  =         0.00000000
  ---------------------------------------------------
  free energy    TOTEN  =      -239.36268050 eV

  energy without entropy =     -239.36268050  energy(sigma->0) =     -239.36268050


--------------------------------------------------------------------------------------------------------




--------------------------------------- Iteration      1(  23)  ---------------------------------------


    POTLOK:  cpu time    0.0760: real time    0.0769
    SETDIJ:  cpu time    0.0190: real time    0.0181
    EDDIAG:  cpu time    1.6697: real time    1.6751
  RMM-DIIS:  cpu time    9.1476: real time    9.2408
    ORTHCH:  cpu time    0.2900: real time    0.2927
 BZINTS: Fermi energy:  6.652995;272.000000 electrons
         Band energy:1170.219399;  BLOECHL correction: -0.035005
       DOS:  cpu time    0.0710: real time    0.0714
    CHARGE:  cpu time    0.3849: real time    0.3882
    MIXING:  cpu time    0.0050: real time    0.0039
    --------------------------------------------
      LOOP:  cpu time   11.6632: real time   11.7671

 eigenvalue-minimisations  : 11865
 total energy-change (2. order) :-0.3164273E-02  (-0.4632123E-03)
 number of electron     271.9999933 magnetization      63.8927642
 augmentation part      148.9802162 magnetization      52.8196292

 Broyden mixing:
  rms(total) = 0.78952E-01    rms(broyden)= 0.78951E-01
  rms(prec ) = 0.12895E+00
  weight for this iteration     100.00

 eigenvalues of (default mixing * dielectric matrix)
  average eigenvalue GAMMA=   0.6052
  2.3485  1.6699  1.2556  1.2556  1.1604  0.6478  0.6478  0.4929  0.2114  0.1666
  0.1666  0.1129  0.1129  0.1074  0.1394  0.1394  0.1370  0.1222

 Free energy of the ion-electron system (eV)
  ---------------------------------------------------
  alpha Z        PSCENC =      1846.49885247
  Ewald energy   TEWEN  =    -21359.62396939
  -Hartree energ DENC   =     -4364.85492572
[...]
  0.050   0.053   0.067  -0.034   1.031  -0.026  -0.030  -0.052   0.033  -0.539  -0.007  -0.002   0.005  -0.009   0.022  -0.000
 -0.727   0.024   0.020  -0.003  -0.026   0.327  -0.010  -0.024   0.001   0.012   0.006  -0.003   0.020   0.001  -0.013  -0.002
  0.024  -0.742   0.016  -0.022  -0.030  -0.010   0.305  -0.010   0.002   0.016  -0.001  -0.000  -0.021   0.003  -0.002   0.002
  0.020   0.016  -0.524  -0.031  -0.052  -0.024  -0.010   0.187   0.008   0.040  -0.008   0.001   0.009   0.001  -0.024  -0.001
 -0.003  -0.022  -0.032  -0.708   0.033   0.001   0.002   0.008   0.321  -0.028  -0.005   0.002  -0.000  -0.022  -0.006   0.000
 -0.025  -0.030  -0.052   0.033  -0.539   0.012   0.016   0.040  -0.028   0.188   0.005   0.000  -0.004   0.006  -0.013   0.000
 -0.012   0.002   0.013   0.010  -0.007   0.006  -0.001  -0.008  -0.005   0.005  -0.198   0.043   0.003   0.011  -0.000   0.000
  0.001   0.000   0.001  -0.000  -0.002  -0.003  -0.000   0.001   0.002   0.000   0.043  -0.008   0.001   0.002  -0.000  -0.000
 -0.030   0.039  -0.014   0.001   0.005   0.020  -0.021   0.009  -0.000  -0.004   0.003   0.001  -0.030   0.000   0.001   0.002
 -0.002  -0.002   0.003   0.033  -0.009   0.001   0.003   0.001  -0.022   0.006   0.011   0.002   0.000  -0.032   0.000  -0.000
  0.022   0.004   0.038   0.017   0.022  -0.013  -0.002  -0.024  -0.006  -0.013  -0.000  -0.000   0.001   0.000  -0.028  -0.000
  0.001  -0.001   0.000  -0.000  -0.000  -0.002   0.002  -0.001   0.000   0.000   0.000  -0.000   0.002  -0.000  -0.000  -0.000
  0.000   0.000   0.000  -0.001   0.000   0.000  -0.000   0.000   0.002  -0.001   0.001  -0.000  -0.000   0.002   0.000   0.000
 -0.000  -0.000  -0.001  -0.000  -0.001   0.001   0.000   0.002   0.001   0.001   0.000  -0.000  -0.000   0.000   0.002   0.000


------------------------ aborting loop because EDIFF is reached ----------------------------------------


 


 total charge     
 
# of ion       s       p       d       tot
------------------------------------------
    1        0.519   0.532   8.319   9.370
    2        0.514   0.523   8.317   9.354
    3        0.513   0.523   8.321   9.357
    4        0.518   0.530   8.322   9.370
    5        0.514   0.524   8.311   9.349
    6        0.516   0.534   8.313   9.363
    7        0.518   0.532   8.313   9.363
    8        0.516   0.530   8.304   9.350
    9        0.477   0.513   6.212   7.202
   10        0.486   0.527   6.233   7.245
   11        0.488   0.531   6.230   7.248
   12        0.478   0.510   6.207   7.195
   13        0.483   0.516   6.212   7.212
   14        0.485   0.526   6.228   7.239
   15        0.473   0.502   6.208   7.183
   16        0.481   0.513   6.206   7.200
   17        0.478   0.512   6.214   7.204
   18        0.479   0.515   6.218   7.212
   19        0.479   0.514   6.219   7.212
   20        0.480   0.516   6.221   7.218
   21        0.478   0.515   6.209   7.201
   22        0.473   0.505   6.213   7.190
   23        0.481   0.519   6.223   7.224
   24        0.488   0.533   6.232   7.253
   25        0.479   0.516   6.213   7.207
   26        0.472   0.505   6.190   7.167
   27        0.478   0.512   6.218   7.208
   28        0.474   0.508   6.208   7.190
   29        0.484   0.525   6.222   7.231
   30        0.483   0.518   6.216   7.218
   31        0.487   0.525   6.224   7.237
   32        0.479   0.517   6.207   7.204
--------------------------------------------------
tot         15.651  16.624 215.704 247.979
 


 magnetization (x)
 
# of ion       s       p       d       tot
------------------------------------------
    1       -0.030  -0.054   0.688   0.604
    2       -0.029  -0.052   0.688   0.607
    3       -0.030  -0.055   0.676   0.591
    4       -0.030  -0.054   0.678   0.594
    5       -0.031  -0.057   0.710   0.622
    6       -0.033  -0.066   0.711   0.612
    7       -0.030  -0.058   0.704   0.617
    8       -0.033  -0.066   0.731   0.632
    9       -0.011  -0.038   2.516   2.467
   10       -0.011  -0.035   2.459   2.413
   11       -0.019  -0.051   2.401   2.331
   12       -0.010  -0.030   2.551   2.511
   13       -0.015  -0.037   2.496   2.444
   14       -0.016  -0.044   2.457   2.396
   15       -0.013  -0.038   2.524   2.473
   16       -0.011  -0.030   2.547   2.506
   17       -0.011  -0.036   2.516   2.469
   18       -0.013  -0.041   2.485   2.431
   19       -0.014  -0.040   2.475   2.422
   20       -0.010  -0.030   2.492   2.451
   21       -0.014  -0.042   2.534   2.479
   22       -0.012  -0.038   2.507   2.456
   23       -0.016  -0.044   2.469   2.409
   24       -0.016  -0.049   2.439   2.373
   25       -0.013  -0.037   2.552   2.501
   26       -0.008  -0.030   2.636   2.598
   27       -0.014  -0.036   2.501   2.451
   28       -0.014  -0.043   2.525   2.468
   29       -0.016  -0.047   2.492   2.429
   30       -0.014  -0.038   2.483   2.431
   31       -0.015  -0.037   2.493   2.441
   32       -0.017  -0.049   2.525   2.458
--------------------------------------------------
tot         -0.573  -1.401  65.660  63.686
 
    CHARGE:  cpu time    0.3989: real time    0.3988
    FORLOC:  cpu time    0.0100: real time    0.0096
    FORNL :  cpu time    3.9624: real time    3.9670
    STRESS:  cpu time   11.8322: real time   11.8431
    FORCOR:  cpu time    0.0830: real time    0.0830
    FORHAR:  cpu time    0.0170: real time    0.0170
    MIXING:  cpu time    0.0070: real time    0.0063
    OFIELD:  cpu time    0.0000: real time    0.0001

  FORCE on cell =-STRESS in cart. coord.  units (eV):
  Direction    XX          YY          ZZ          XY          YZ          ZX
  --------------------------------------------------------------------------------------
  Alpha Z  1846.49885  1846.49885  1846.49885
  Ewald   -7175.43523 -7067.74466 -7116.53242     2.18733     0.65674     0.28087
  Hartree  1402.20487  1504.43427  1458.10291     1.62803     1.59158     0.37336
  E(xc)   -1396.49467 -1396.28383 -1396.29766    -0.00831     0.00776    -0.06270
  Local    1295.53969  1089.82249  1182.98373    -3.24517    -2.79500    -0.35543
  n-local  -676.15001  -675.40408  -675.81735    -0.18585    -0.12958    -0.44875
  augment  2341.19085  2337.45935  2339.04658    -0.38190     0.41229    -0.14358
  Kinetic  2369.25842  2364.57260  2364.84878     0.30581    -0.02907     0.59515
  Fock        0.00000     0.00000     0.00000     0.00000     0.00000     0.00000
  -------------------------------------------------------------------------------------
  Total       6.61277     3.35500     2.83342     0.29994    -0.28527     0.23893
  in kB      28.98517    14.70568    12.41948     1.31472    -1.25041     1.04729
  external pressure =       18.70 kB  Pullay stress =        0.00 kB


 VOLUME and BASIS-vectors are now :
 -----------------------------------------------------------------------------
  energy-cutoff  :      520.00
  volume of cell :      365.53
      direct lattice vectors                 reciprocal lattice vectors
     7.150000000  0.000000000  0.000000000     0.139860140  0.000000000  0.000000000
     0.000000000  7.150000000  0.000000000     0.000000000  0.139860140  0.000000000
     0.000000000  0.000000000  7.150000000     0.000000000  0.000000000  0.139860140

  length of vectors
     7.150000000  7.150000000  7.150000000     0.139860140  0.139860140  0.139860140


 FORCES acting on ions
    electron-ion (+dipol)            ewald-force                    non-local-force                 convergence-correction
 -----------------------------------------------------------------------------------------------
   -.155E+01 0.424E+02 0.752E+02   0.163E+01 -.426E+02 -.754E+02   -.516E-01 0.123E+00 0.437E+00   0.230E-02 -.155E-02 -.830E-03
   -.249E+02 -.225E+02 -.677E+02   0.250E+02 0.226E+02 0.680E+02   -.223E+00 -.341E-01 -.292E+00   -.541E-03 0.551E-03 -.210E-02
   -.962E+02 0.413E+01 -.458E+02   0.964E+02 -.396E+01 0.459E+02   -.432E+00 0.130E-02 -.128E+00   -.375E-03 -.318E-02 -.110E-02
   -.206E+01 -.450E+02 0.348E+02   0.206E+01 0.452E+02 -.349E+02   0.398E-02 -.169E+00 0.212E+00   -.275E-03 0.157E-02 0.444E-03
   0.259E+02 0.257E+02 -.814E+02   -.260E+02 -.257E+02 0.819E+02   0.237E-01 0.714E-01 -.425E+00   0.381E-02 -.650E-03 -.445E-02
   -.617E+02 -.152E+02 0.471E+02   0.618E+02 0.152E+02 -.472E+02   -.292E+00 -.111E+00 0.228E+00   -.706E-02 0.997E-03 0.419E-02
   0.120E+03 -.313E+01 0.305E+02   -.120E+03 0.312E+01 -.305E+02   0.520E+00 0.152E-01 0.139E+00   0.391E-02 0.759E-03 -.657E-03
   0.774E+02 -.360E+01 -.323E+02   -.778E+02 0.363E+01 0.324E+02   0.360E+00 -.311E-01 -.222E+00   0.278E-02 -.248E-02 0.635E-03
   0.185E+01 0.440E+02 -.679E+02   -.175E+01 -.441E+02 0.684E+02   -.120E+00 0.110E+00 -.715E+00   0.196E-02 0.771E-03 0.427E-03
   -.139E+02 0.162E+02 0.568E+02   0.139E+02 -.163E+02 -.572E+02   -.144E+00 0.282E+00 0.523E+00   -.133E-02 -.495E-03 0.161E-02
   -.543E+02 0.999E+01 0.426E+02   0.544E+02 -.990E+01 -.429E+02   -.195E+00 0.182E-02 0.194E+00   -.218E-02 -.753E-03 0.847E-03
   -.104E+03 -.133E+01 0.250E+02   0.105E+03 0.131E+01 -.249E+02   -.615E+00 -.662E-01 0.216E+00   -.330E-02 -.132E-02 0.361E-03
   -.893E+02 -.251E+01 -.418E+02   0.897E+02 0.238E+01 0.422E+02   -.630E+00 -.655E-01 -.357E+00   -.387E-02 0.242E-02 -.328E-02
   0.481E+01 0.149E+02 0.368E+02   -.488E+01 -.147E+02 -.370E+02   0.241E-01 0.307E+00 0.774E-01   -.176E-02 -.585E-03 0.106E-02
   0.157E+02 -.294E+02 -.188E+02   -.160E+02 0.295E+02 0.189E+02   0.255E+00 -.906E-01 -.318E-01   0.276E-03 -.296E-02 -.834E-03
   0.823E+02 0.470E+02 -.446E+02   -.827E+02 -.472E+02 0.448E+02   0.742E+00 0.401E+00 -.228E+00   0.540E-03 0.923E-03 -.934E-03
   0.405E+00 -.469E+02 -.252E+02   -.424E+00 0.471E+02 0.254E+02   0.437E-02 -.622E-01 -.334E+00   0.337E-04 -.734E-03 -.288E-03
   0.214E+02 -.192E+02 0.648E+02   -.215E+02 0.193E+02 -.653E+02   0.126E+00 -.217E+00 0.575E+00   0.210E-02 0.449E-03 0.357E-02
   -.634E+02 -.183E+01 -.235E+02   0.637E+02 0.183E+01 0.234E+02   -.178E+00 0.264E-01 -.205E+00   -.240E-02 -.386E-02 -.326E-03
   -.775E+02 0.781E+01 0.340E+02   0.777E+02 -.789E+01 -.342E+02   -.617E+00 -.120E-02 0.223E+00   -.367E-02 0.138E-02 0.196E-02
   -.784E+01 0.168E+02 -.391E+02   0.786E+01 -.166E+02 0.393E+02   0.776E-01 0.220E+00 -.139E+00   -.200E-02 0.135E-02 -.108E-02
   0.254E+02 0.182E+02 0.187E+02   -.256E+02 -.183E+02 -.187E+02   0.148E+00 0.151E+00 -.886E-02   0.120E-02 -.390E-02 0.788E-03
   0.198E+01 -.152E+02 -.130E+02   -.204E+01 0.150E+02 0.132E+02   -.381E-02 -.302E+00 -.136E+00   0.202E-03 0.445E-03 0.214E-02
   -.305E+02 0.339E+02 -.231E+02   0.307E+02 -.341E+02 0.232E+02   -.957E-01 0.361E-01 -.306E-01   -.310E-02 0.303E-02 -.267E-02
   0.572E+02 0.538E+02 0.489E+02   -.572E+02 -.542E+02 -.491E+02   0.843E-01 0.405E+00 0.144E+00   0.221E-02 0.241E-02 0.104E-02
   0.969E+02 -.468E+02 -.483E+02   -.972E+02 0.469E+02 0.485E+02   0.445E+00 -.390E+00 -.135E+00   0.395E-02 -.955E-03 -.348E-02
   -.322E+02 0.374E+01 -.319E+02   0.320E+02 -.378E+01 0.321E+02   -.304E+00 0.135E-01 -.215E+00   -.292E-02 0.394E-02 -.200E-02
   -.105E+02 -.157E+02 0.183E+02   0.105E+02 0.156E+02 -.185E+02   0.104E+00 -.238E+00 0.166E+00   -.168E-03 -.136E-02 -.209E-02
   -.272E+02 -.224E+02 0.227E+02   0.272E+02 0.225E+02 -.228E+02   0.208E-02 -.509E-01 0.409E-02   -.214E-02 0.398E-02 0.280E-02
   0.517E+02 -.560E+02 0.456E+02   -.519E+02 0.564E+02 -.458E+02   0.217E+00 -.393E+00 0.165E+00   0.556E-02 -.251E-02 0.344E-02
   0.772E+02 0.429E+01 0.326E+02   -.775E+02 -.434E+01 -.328E+02   0.755E+00 0.413E-01 0.294E+00   0.374E-02 -.438E-03 0.110E-02
   0.369E+02 0.374E+01 -.296E+02   -.369E+02 -.377E+01 0.297E+02   0.297E+00 0.760E-02 -.207E+00   0.284E-02 0.207E-02 -.111E-02
 -----------------------------------------------------------------------------------------------
   -.287E+00 0.979E-02 0.212E+00   0.654E-12 -.171E-12 0.103E-12   0.289E+00 -.975E-02 -.212E+00   0.309E-03 -.690E-03 -.828E-03
 
 
 POSITION                                       TOTAL-FORCE (eV/Angst)
 -----------------------------------------------------------------------------------
      7.14178      0.00039      3.58102         0.029990     -0.067082      0.220087
      0.01694      1.80028      5.35542        -0.085875      0.020560     -0.028286
      1.78494      7.14965      5.36038        -0.220707      0.164799      0.002361
      7.14932      3.57172      3.56458         0.010619      0.029479      0.116548
      7.13493      5.37005      5.32730        -0.000088      0.010731      0.036506
      1.78866      3.56825      1.81205        -0.194278     -0.109252      0.050436
      5.40579      1.78974      3.57696        -0.009130      0.001946      0.087856
      5.39643      1.78689      7.14224        -0.030774     -0.009137     -0.101884
      7.14201      0.00630      7.11598        -0.018876     -0.043828     -0.224428
      0.03504      1.77183      1.79336        -0.184086      0.221396      0.154702
      1.76434      7.13097      1.80663        -0.044976      0.090473     -0.106311
      1.73581      1.77929      3.56795         0.166593     -0.085741      0.302470
      1.76531      3.60473      5.33017        -0.244131     -0.191743     -0.028193
      3.59620      0.00788      3.59761        -0.040467      0.473922     -0.112732
      3.56240      1.79883      5.36934        -0.024591      0.059858     -0.011875
      5.37213      0.02397      5.34104         0.343932      0.227474     -0.055990
      7.14530      3.55395      0.00580        -0.014635      0.110281     -0.122801
      7.14502      5.33892      1.80692         0.079430     -0.085551      0.065225
      1.75161      1.79015      0.01452         0.135875      0.019544     -0.292832
      1.78247      5.39338      3.58649        -0.482870     -0.071620      0.059001
      3.56627      7.13179      7.13140         0.094537      0.383559      0.057965
      3.60307      1.75642      1.78612        -0.096166      0.050436     -0.024276
      3.58192      3.57671      3.56384        -0.063026     -0.435673      0.055021
      3.54953      5.38679      5.34453         0.100182     -0.161480      0.009802
      5.41315      0.01448      1.81103         0.030945     -0.004725     -0.065891
      5.40000      3.57256      5.33245         0.158124     -0.232425      0.038466
      1.78570      5.36098      7.14242        -0.481418     -0.027761     -0.038517
      3.55376      3.59738      0.03018         0.092095     -0.386778     -0.035835
      3.55888      5.36046      1.81226         0.075619      0.064819     -0.033538
      5.37885      3.52891      1.80942         0.065323      0.016607     -0.025482
      5.34708      5.36587      3.58067         0.514699     -0.008890      0.143117
      5.34537      5.36048      7.14990         0.338126     -0.024195     -0.090692
 -----------------------------------------------------------------------------------
    total drift:                                0.002351     -0.000641     -0.000724


--------------------------------------------------------------------------------------------------------



  FREE ENERGIE OF THE ION-ELECTRON SYSTEM (eV)
  ---------------------------------------------------
  free  energy   TOTEN  =      -239.36284953 eV

  energy  without entropy=     -239.36284953  energy(sigma->0) =     -239.36284953
 


--------------------------------------------------------------------------------------------------------


    POTLOK:  cpu time    0.1160: real time    0.1168


--------------------------------------------------------------------------------------------------------


     LOOP+:  cpu time  421.8739: real time  424.4490
    4ORBIT:  cpu time    0.0000: real time    0.0000
 


 total charge     
 
# of ion       s       p       d       tot
------------------------------------------
    1        0.519   0.532   8.319   9.370
    2        0.514   0.523   8.317   9.354
    3        0.513   0.523   8.321   9.357
    4        0.518   0.530   8.322   9.370
    5        0.514   0.524   8.311   9.349
    6        0.516   0.534   8.313   9.363
    7        0.518   0.532   8.313   9.363
    8        0.516   0.530   8.304   9.350
    9        0.477   0.513   6.212   7.202
   10        0.486   0.527   6.233   7.245
   11        0.488   0.531   6.230   7.248
   12        0.478   0.510   6.207   7.195
   13        0.483   0.516   6.212   7.212
   14        0.485   0.526   6.228   7.239
   15        0.473   0.502   6.208   7.183
   16        0.481   0.513   6.206   7.200
   17        0.478   0.512   6.214   7.204
   18        0.479   0.515   6.218   7.212
   19        0.479   0.514   6.219   7.212
   20        0.480   0.516   6.221   7.218
   21        0.478   0.515   6.209   7.201
   22        0.473   0.505   6.213   7.190
   23        0.481   0.519   6.223   7.224
   24        0.488   0.533   6.232   7.253
   25        0.479   0.516   6.213   7.207
   26        0.472   0.505   6.190   7.167
   27        0.478   0.512   6.218   7.208
   28        0.474   0.508   6.208   7.190
   29        0.484   0.525   6.222   7.231
   30        0.483   0.518   6.216   7.218
   31        0.487   0.525   6.224   7.237
   32        0.479   0.517   6.207   7.204
--------------------------------------------------
tot         15.651  16.624 215.704 247.979
 


 magnetization (x)
 
# of ion       s       p       d       tot
------------------------------------------
    1       -0.030  -0.054   0.688   0.604
    2       -0.029  -0.052   0.688   0.607
    3       -0.030  -0.055   0.676   0.591
    4       -0.030  -0.054   0.678   0.594
    5       -0.031  -0.057   0.710   0.622
    6       -0.033  -0.066   0.711   0.612
    7       -0.030  -0.058   0.704   0.617
    8       -0.033  -0.066   0.731   0.632
    9       -0.011  -0.038   2.516   2.467
   10       -0.011  -0.035   2.459   2.413
   11       -0.019  -0.051   2.401   2.331
   12       -0.010  -0.030   2.551   2.511
   13       -0.015  -0.037   2.496   2.444
   14       -0.016  -0.044   2.457   2.396
   15       -0.013  -0.038   2.524   2.473
   16       -0.011  -0.030   2.547   2.506
   17       -0.011  -0.036   2.516   2.469
   18       -0.013  -0.041   2.485   2.431
   19       -0.014  -0.040   2.475   2.422
   20       -0.010  -0.030   2.492   2.451
   21       -0.014  -0.042   2.534   2.479
   22       -0.012  -0.038   2.507   2.456
   23       -0.016  -0.044   2.469   2.409
   24       -0.016  -0.049   2.439   2.373
   25       -0.013  -0.037   2.552   2.501
   26       -0.008  -0.030   2.636   2.598
   27       -0.014  -0.036   2.501   2.451
   28       -0.014  -0.043   2.525   2.468
   29       -0.016  -0.047   2.492   2.429
   30       -0.014  -0.038   2.483   2.431
   31       -0.015  -0.037   2.493   2.441
   32       -0.017  -0.049   2.525   2.458
--------------------------------------------------
tot         -0.573  -1.401  65.660  63.686
 
 BZINTS: Fermi energy:  6.650698;272.000000 electrons
         Band energy:1170.004787;  BLOECHL correction: -0.034510

 total amount of memory used by VASP MPI-rank0    86919. kBytes
=======================================================================

   base      :      30000. kBytes
   nonlr-proj:       7915. kBytes
   fftplans  :       2563. kBytes
   grid      :       6379. kBytes
   one-center:        124. kBytes
   wavefun   :      39938. kBytes
 
  
  
 General timing and accounting informations for this job:
 ========================================================
  
                  Total CPU time used (sec):      437.667
                            User time (sec):      428.010
                          System time (sec):        9.658
                         Elapsed time (sec):      440.403
  
                   Maximum memory used (kb):      136820.
                   Average memory used (kb):           0.
  
                          Minor page faults:        14074
                          Major page faults:            0
                 Voluntary context switches:         1618
