SQS-NiFe                                
           1
     7.150000    0.000000    0.000000
     0.000000    7.150000    0.000000
     0.000000    0.000000    7.150000
   Ni   Fe
   8  24
Direct configuration=     1
   0.99885081  0.00005405  0.50084181
   0.00236904  0.25178726  0.74901045
   0.24964203  0.99995098  0.74970307
   0.99990507  0.49954129  0.49854249
   0.99789166  0.75105564  0.74507677
   0.25016250  0.49905534  0.25343411
   0.75605397  0.25031301  0.50027445
   0.75474512  0.24991527  0.99891466
   0.99888268  0.00088165  0.99524226
   0.00490121  0.24780848  0.25081896
   0.24676048  0.99733886  0.25267555
   0.24277109  0.24885108  0.49901459
   0.24689657  0.50415762  0.74547858
   0.50296569  0.00110228  0.50316205
   0.49823724  0.25158520  0.75095688
   0.75134729  0.00335214  0.74699880
   0.99934329  0.49705644  0.00081167
   0.99930281  0.74670277  0.25271556
   0.24498026  0.25037064  0.00203146
   0.24929703  0.75431909  0.50160751
   0.49877865  0.99745353  0.99739905
   0.50392525  0.24565328  0.24980665
   0.50096740  0.50023939  0.49843970
   0.49643736  0.75339683  0.74748631
   0.75708338  0.00202533  0.25329148
   0.75524541  0.49965824  0.74579741
   0.24974758  0.74978696  0.99893917
   0.49702948  0.50312975  0.00422081
   0.49774528  0.74971477  0.25346332
   0.75228700  0.49355366  0.25306598
   0.74784352  0.75047129  0.50079242
   0.74760384  0.74971789  0.99998602
