       N       E                     dE             d eps       ncg     rms          rms(c)
DAV:   1     0.414615017862E+04    0.41462E+04   -0.21280E+05 27129   0.152E+03
DAV:   2    -0.109581604291E+03   -0.42557E+04   -0.40335E+04 27120   0.368E+02
DAV:   3    -0.442496286288E+03   -0.33291E+03   -0.29191E+03 28563   0.138E+02
DAV:   4    -0.491557653172E+03   -0.49061E+02   -0.45029E+02 49083   0.418E+01
DAV:   5    -0.495726810577E+03   -0.41692E+01   -0.39432E+01 43566   0.114E+01
RMM:   6    -0.495938221494E+03   -0.21141E+00   -0.21068E+00 29354   0.237E+00
RMM:   7    -0.496062439537E+03   -0.12422E+00   -0.11942E+00 43024   0.570E-01
RMM:   8    -0.496104967915E+03   -0.42528E-01   -0.39752E-01 42946   0.205E-01
RMM:   9    -0.496111326580E+03   -0.63587E-02   -0.47202E-02 37892   0.915E-02
RMM:  10    -0.496113285024E+03   -0.19584E-02   -0.18411E-02 36088   0.317E-02
RMM:  11    -0.496113620941E+03   -0.33592E-03   -0.29903E-03 28642   0.175E-02
RMM:  12    -0.496113752950E+03   -0.13201E-03   -0.13285E-03 27877   0.667E-03
RMM:  13    -0.496113777686E+03   -0.24736E-04   -0.25007E-04 23731   0.352E-03
RMM:  14    -0.496113787524E+03   -0.98377E-05   -0.10554E-04 21716   0.211E-03
RMM:  15    -0.496113789666E+03   -0.21420E-05   -0.23893E-05 19427   0.150E-03
RMM:  16    -0.496113790555E+03   -0.88921E-06   -0.99856E-06 17555   0.115E-03
   1 F= -.50901206E+03 E0= -.50901206E+03  d E =0.000000E+00  mag=   130.3551
