 vasp.5.4.4.18Apr17-6-g9f103f2a35 (build Dec 15 2018 21:27:11) complex          
  
 executed on             LinuxIFC date 2022.04.09  21:18:07
 running on   72 total cores
 distrk:  each k-point on   72 cores,    1 groups
 distr:  one band on NCORES_PER_BAND=  24 cores,    3 groups


--------------------------------------------------------------------------------------------------------


 INCAR:
 POTCAR:    PAW_PBE Fe 06Sep2000                  

 ----------------------------------------------------------------------------- 
|                                                                             |
|           W    W    AA    RRRRR   N    N  II  N    N   GGGG   !!!           |
|           W    W   A  A   R    R  NN   N  II  NN   N  G    G  !!!           |
|           W    W  A    A  R    R  N N  N  II  N N  N  G       !!!           |
|           W WW W  AAAAAA  RRRRR   N  N N  II  N  N N  G  GGG   !            |
|           WW  WW  A    A  R   R   N   NN  II  N   NN  G    G                |
|           W    W  A    A  R    R  N    N  II  N    N   GGGG   !!!           |
|                                                                             |
|      For optimal performance we recommend to set                            |
|        NCORE= 4 - approx SQRT( number of cores)                             |
|      NCORE specifies how many cores store one orbital (NPAR=cpu/NCORE).     |
|      This setting can  greatly improve the performance of VASP for DFT.     |
|      The default,   NCORE=1            might be grossly inefficient         |
|      on modern multi-core architectures or massively parallel machines.     |
|      Do your own testing !!!!                                               |
|      Unfortunately you need to use the default for GW and RPA calculations. |
|      (for HF NCORE is supported but not extensively tested yet)             |
|                                                                             |
 ----------------------------------------------------------------------------- 

 POTCAR:    PAW_PBE Fe 06Sep2000                  
   VRHFIN =Fe:  d7 s1                                                           
   LEXCH  = PE                                                                  
   EATOM  =   594.3153 eV,   43.6809 Ry                                         
                                                                                
   TITEL  = PAW_PBE Fe 06Sep2000                                                
   LULTRA =        F    use ultrasoft PP ?                                      
   IUNSCR =        1    unscreen: 0-lin 1-nonlin 2-no                           
   RPACOR =    2.000    partial core radius                                     
   POMASS =   55.847; ZVAL   =    8.000    mass and valenz                      
   RCORE  =    2.300    outmost cutoff radius                                   
   RWIGS  =    2.460; RWIGS  =    1.302    wigner-seitz radius (au A)           
   ENMAX  =  267.882; ENMIN  =  200.911 eV                                      
   RCLOC  =    1.701    cutoff for local pot                                    
   LCOR   =        T    correct aug charges                                     
   LPAW   =        T    paw PP                                                  
   EAUG   =  511.368                                                            
   DEXC   =    0.000                                                            
   RMAX   =    2.356    core radius for proj-oper                               
   RAUG   =    1.300    factor for augmentation sphere                          
   RDEP   =    2.442    radius for radial grids                                 
   RDEPT  =    1.890    core radius for aug-charge                              
                                                                                
   Atomic configuration                                                         
    9 entries                                                                   
     n  l   j            E        occ.                                          
     1  0  0.50     -6993.8440   2.0000                                         
     2  0  0.50      -814.6047   2.0000                                         
     2  1  1.50      -693.3689   6.0000                                         
     3  0  0.50       -89.4732   2.0000                                         
     3  1  1.50       -55.6373   6.0000                                         
     3  2  2.50        -3.8151   7.0000                                         
     4  0  0.50        -4.2551   1.0000                                         
     4  1  1.50        -3.4015   0.0000                                         
     4  3  2.50        -1.3606   0.0000                                         
   Description                                                                  
     l       E           TYP  RCUT    TYP  RCUT                                 
     2     -3.8151135     23  2.300                                             
     2     -5.1756961     23  2.300                                             
     0     -4.2550963     23  2.300                                             
     0      7.2035603     23  2.300                                             
     1     -2.7211652     23  2.300                                             
     1     18.4316424     23  2.300                                             
  local pseudopotential read in
  partial core-charges read in
  partial kinetic energy density read in
  atomic valenz-charges read in
  non local Contribution for L=           2  read in
    real space projection operators read in
  non local Contribution for L=           2  read in
    real space projection operators read in
  non local Contribution for L=           0  read in
    real space projection operators read in
  non local Contribution for L=           0  read in
    real space projection operators read in
  non local Contribution for L=           1  read in
    real space projection operators read in
  non local Contribution for L=           1  read in
    real space projection operators read in
    PAW grid and wavefunctions read in
 
   number of l-projection  operators is LMAX  =           6
   number of lm-projection operators is LMMAX =          18
 
 Optimization of the real space projectors (new method)

 maximal supplied QI-value         = 16.25
 optimisation between [QCUT,QGAM] = [ 11.54, 23.24] = [ 37.28,151.24] Ry 
 Optimized for a Real-space Cutoff    1.53 Angstroem

   l    n(q)    QCUT    max X(q) W(low)/X(q) W(high)/X(q)  e(spline) 
   2     10    11.539    80.901    0.11E-03    0.14E-03    0.21E-06
   2     10    11.539    75.754    0.11E-03    0.14E-03    0.22E-06
   0     11    11.539    58.752    0.52E-04    0.18E-04    0.33E-06
   0     11    11.539    30.679    0.44E-04    0.16E-04    0.30E-06
   1     10    11.539    17.977    0.53E-04    0.29E-04    0.13E-06
   1     10    11.539    13.559    0.44E-04    0.25E-04    0.11E-06
  PAW_PBE Fe 06Sep2000                  :
 energy of atom  1       EATOM= -594.3153
 kinetic energy error for atom=    0.0026 (will be added to EATOM!!)
 
 
 POSCAR: POSCAR                                  
  positions in direct lattice
  velocities in cartesian coordinates
 exchange correlation table for  LEXCH =        8
   RHO(1)=    0.500       N(1)  =     2000
   RHO(2)=  100.500       N(2)  =     4000

 VTST: version 3.2, (02/03/18)

 CHAIN: initializing optimizer
 
 OPT: Using VASP Dynamics algorithm
 CHAIN: Read ICHAIN            0
 
 POSCAR: POSCAR                                  
  positions in direct lattice
  velocities in cartesian coordinates
 


--------------------------------------------------------------------------------------------------------


 ion  position               nearest neighbor table
   1  0.087  0.163  0.095-   3 2.48  31 2.48  13 2.48   5 2.48  17 2.48  49 2.48  15 2.87  19 2.87
                            29 2.87  53 2.87
   2  0.087  0.163  0.285-  32 2.42   4 2.43  31 2.44   3 2.45  18 2.48  14 2.48   6 2.48  50 2.48
                            20 2.82  16 2.82  15 2.83  19 2.84  30 2.87  54 2.87
   3  0.212  0.038  0.191-   2 2.45  54 2.45  53 2.48   1 2.48   7 2.48  15 2.48  19 2.48  51 2.48
                             6 2.83  50 2.84   5 2.87  49 2.87  31 2.87  55 2.87
   4  0.212  0.037  0.378-   2 2.43  54 2.43  16 2.48  52 2.48  20 2.48   8 2.48  50 2.81   6 2.83
                            32 2.87  56 2.88
   5  0.337  0.163  0.095-   7 2.48  19 2.48   9 2.48   1 2.48  21 2.48  53 2.48  23 2.87   3 2.87
                            17 2.87  57 2.87
   6  0.337  0.163  0.285-   8 2.43  20 2.43  19 2.44   7 2.44  22 2.48  10 2.48   2 2.48  54 2.49
                            24 2.83   3 2.83  23 2.83   4 2.83  18 2.86  58 2.87
   7  0.462  0.038  0.191-   6 2.44  58 2.45  57 2.48   5 2.48   3 2.48  11 2.48  23 2.48  55 2.48
                            10 2.83  54 2.84   9 2.87  53 2.87  19 2.87  59 2.87
   8  0.462  0.038  0.377-  58 2.42   6 2.43  12 2.48   4 2.48  56 2.49  24 2.49  54 2.81  10 2.82
                            20 2.86  60 2.87
   9  0.587  0.163  0.095-  11 2.48  23 2.48  13 2.48   5 2.48  25 2.48  57 2.48  27 2.87   7 2.87
                            21 2.87  61 2.87
  10  0.587  0.163  0.284-  23 2.43  24 2.43  12 2.44  11 2.44   6 2.48  26 2.48  14 2.48  58 2.48
                             8 2.82  28 2.82   7 2.83  27 2.83  22 2.86  62 2.87
  11  0.712  0.038  0.191-  10 2.44  62 2.45  61 2.48   9 2.48   7 2.48  15 2.48  27 2.48  59 2.48
                            14 2.83  58 2.83  13 2.87  57 2.87  23 2.87  63 2.87
  12  0.711  0.039  0.378-  62 2.43  10 2.44  28 2.48   8 2.48  16 2.48  60 2.49  58 2.82  14 2.83
                            24 2.85  64 2.88
  13  0.837  0.163  0.095-  15 2.48  27 2.48   1 2.48   9 2.48  29 2.48  61 2.48  31 2.87  11 2.87
                            49 2.87  25 2.87
  14  0.837  0.163  0.285-  28 2.43  27 2.43  16 2.44  15 2.44  30 2.48   2 2.48  10 2.48  62 2.49
                            32 2.82  31 2.83  11 2.83  12 2.83  26 2.86  50 2.87
  15  0.962  0.038  0.191-  14 2.44  50 2.45  49 2.48  13 2.48   3 2.48  11 2.48  31 2.48  63 2.48
                             2 2.83  62 2.84   1 2.87  61 2.87  51 2.87  27 2.87
  16  0.962  0.038  0.378-  50 2.43  14 2.44   4 2.48  64 2.48  12 2.48  32 2.49  62 2.82   2 2.82
                            28 2.87  52 2.88
  17  0.087  0.413  0.095-  19 2.48  47 2.48  29 2.48  21 2.48  33 2.48   1 2.48  35 2.87  31 2.87
                            45 2.87   5 2.87
  18  0.088  0.412  0.284-  19 2.43  48 2.44  20 2.44  47 2.44   2 2.48  34 2.48  22 2.48  30 2.49
                            32 2.82  36 2.82  31 2.83  35 2.83   6 2.86  46 2.87
  19  0.212  0.288  0.191-  18 2.43   6 2.44  17 2.48   5 2.48  23 2.48  31 2.48   3 2.48  35 2.48
                            22 2.82   2 2.84   1 2.87  21 2.87   7 2.87  47 2.87
  20  0.212  0.287  0.378-   6 2.43  18 2.44  32 2.48  36 2.48   4 2.48  24 2.49   2 2.82  22 2.84
                             8 2.86  48 2.87
  21  0.337  0.413  0.095-  23 2.48  35 2.48  25 2.48  17 2.48   5 2.48  37 2.48  19 2.87  39 2.87
                            33 2.87   9 2.87
  22  0.338  0.412  0.284-  23 2.43  35 2.44  36 2.44  24 2.44  38 2.48   6 2.48  26 2.48  18 2.48
                            39 2.82  19 2.82  40 2.83  20 2.84  10 2.86  34 2.87
  23  0.462  0.288  0.191-  22 2.43  10 2.43  21 2.48   9 2.48  19 2.48  27 2.48   7 2.48  39 2.48
                            26 2.82   6 2.83  25 2.87   5 2.87  35 2.87  11 2.87
  24  0.463  0.288  0.378-  10 2.43  22 2.44  40 2.48  28 2.48   8 2.49  20 2.49   6 2.83  26 2.83
                            12 2.85  36 2.86
  25  0.587  0.413  0.095-  27 2.48  39 2.48  29 2.48  21 2.48   9 2.48  41 2.48  23 2.87  43 2.87
                            37 2.87  13 2.87
  26  0.587  0.413  0.284-  39 2.43  27 2.43  28 2.44  40 2.44  30 2.48  22 2.48  42 2.48  10 2.48
                            43 2.82  23 2.82  24 2.83  44 2.83  38 2.85  14 2.86
  27  0.712  0.288  0.191-  26 2.43  14 2.43  25 2.48  13 2.48  23 2.48  31 2.48  11 2.48  43 2.48
                            10 2.83  30 2.83  29 2.87   9 2.87  39 2.87  15 2.87
  28  0.712  0.288  0.378-  14 2.43  26 2.44  24 2.48  12 2.48  44 2.48  32 2.49  30 2.82  10 2.82
                            40 2.86  16 2.87
  29  0.837  0.413  0.095-  31 2.48  43 2.48  17 2.48  25 2.48  13 2.48  45 2.48  27 2.87  47 2.87
                            41 2.87   1 2.87
  30  0.837  0.413  0.285-  32 2.43  44 2.43  43 2.43  31 2.44  46 2.48  14 2.48  26 2.48  18 2.49
                            28 2.82  47 2.83  48 2.83  27 2.83  42 2.86   2 2.87
  31  0.962  0.288  0.191-  30 2.44   2 2.44  29 2.48   1 2.48  19 2.48  27 2.48  15 2.48  47 2.48
                            18 2.83  14 2.83  13 2.87  17 2.87  43 2.87   3 2.87
  32  0.962  0.288  0.378-   2 2.42  30 2.43  48 2.48  20 2.48  28 2.49  16 2.49  18 2.82  14 2.82
                            44 2.86   4 2.87
  33  0.087  0.663  0.095-  35 2.48  63 2.48  45 2.48  37 2.48  49 2.48  17 2.48  51 2.87  47 2.87
                            61 2.87  21 2.87
  34  0.088  0.662  0.285-  36 2.42  64 2.43  35 2.44  63 2.45  18 2.48  38 2.48  46 2.48  50 2.49
                            48 2.82  52 2.82  47 2.83  51 2.83  22 2.87  62 2.88
  35  0.212  0.538  0.191-  22 2.44  34 2.44  33 2.48  21 2.48  39 2.48  47 2.48  19 2.48  51 2.48
                            38 2.82  18 2.83  17 2.87  37 2.87  23 2.87  63 2.87
  36  0.213  0.537  0.378-  34 2.42  22 2.44  48 2.48  20 2.48  40 2.48  52 2.49  18 2.82  38 2.83
                            24 2.86  64 2.87
  37  0.337  0.663  0.095-  39 2.48  51 2.48  41 2.48  33 2.48  21 2.48  53 2.48  35 2.87  55 2.87
                            49 2.87  25 2.87
  38  0.338  0.661  0.284-  40 2.43  39 2.43  52 2.43  51 2.44  22 2.48  42 2.48  34 2.48  54 2.49
                            35 2.82  36 2.83  55 2.83  56 2.83  26 2.85  50 2.88
  39  0.462  0.538  0.191-  26 2.43  38 2.43  37 2.48  25 2.48  35 2.48  43 2.48  23 2.48  55 2.48
                            22 2.82  42 2.83  41 2.87  21 2.87  51 2.87  27 2.87
  40  0.463  0.537  0.378-  38 2.43  26 2.44  24 2.48  56 2.48  44 2.48  36 2.48  42 2.83  22 2.83
                            28 2.86  52 2.86
  41  0.587  0.663  0.095-  43 2.48  55 2.48  45 2.48  37 2.48  25 2.48  57 2.48  39 2.87  59 2.87
                            53 2.87  29 2.87
  42  0.588  0.663  0.284-  44 2.43  56 2.43  43 2.44  55 2.44  26 2.48  38 2.48  46 2.48  58 2.48
                            60 2.82  59 2.83  40 2.83  39 2.83  30 2.86  54 2.86
  43  0.712  0.538  0.191-  30 2.43  42 2.44  41 2.48  29 2.48  39 2.48  47 2.48  27 2.48  59 2.48
                            26 2.82  46 2.83  45 2.87  25 2.87  55 2.87  31 2.87
  44  0.712  0.538  0.378-  30 2.43  42 2.43  28 2.48  60 2.48  40 2.48  48 2.49  46 2.82  26 2.83
                            56 2.85  32 2.86
  45  0.837  0.663  0.095-  47 2.48  59 2.48  33 2.48  41 2.48  29 2.48  61 2.48  43 2.87  63 2.87
                            57 2.87  17 2.87
  46  0.838  0.662  0.285-  60 2.43  48 2.43  47 2.44  59 2.44  30 2.48  42 2.48  34 2.48  62 2.48
                            44 2.82  64 2.83  63 2.83  43 2.83  18 2.87  58 2.87
  47  0.962  0.538  0.191-  46 2.44  18 2.44  45 2.48  17 2.48  35 2.48  43 2.48  31 2.48  63 2.48
                            30 2.83  34 2.83  29 2.87  33 2.87  59 2.87  19 2.87
  48  0.963  0.538  0.378-  46 2.43  18 2.44  32 2.48  36 2.48  64 2.48  44 2.49  34 2.82  30 2.83
                            20 2.87  60 2.87
  49  0.087  0.913  0.095-  15 2.48  51 2.48  53 2.48  61 2.48  33 2.48   1 2.48   3 2.87  63 2.87
                            13 2.87  37 2.87
  50  0.087  0.912  0.285-  52 2.42  16 2.43  51 2.45  15 2.45  62 2.48  54 2.48   2 2.48  34 2.49
                             4 2.81  64 2.81  63 2.84   3 2.84  14 2.87  38 2.88
  51  0.212  0.788  0.191-  38 2.44  50 2.45  49 2.48  37 2.48  55 2.48  63 2.48   3 2.48  35 2.48
                            54 2.83  34 2.83  53 2.87  33 2.87  15 2.87  39 2.87
  52  0.213  0.787  0.378-  50 2.42  38 2.43   4 2.48  64 2.48  56 2.49  36 2.49  54 2.81  34 2.82
                            40 2.86  16 2.88
  53  0.337  0.913  0.095-   3 2.48  55 2.48  49 2.48  57 2.48  37 2.48   5 2.48   7 2.87  51 2.87
                             1 2.87  41 2.87
  54  0.338  0.912  0.285-   4 2.43  56 2.43  55 2.44   3 2.45  58 2.48  50 2.48   6 2.49  38 2.49
                             8 2.81  52 2.81  51 2.83   7 2.84  42 2.86   2 2.87
  55  0.462  0.788  0.191-  42 2.44  54 2.44  53 2.48  41 2.48  51 2.48  59 2.48   7 2.48  39 2.48
                            38 2.83  58 2.84  37 2.87  57 2.87   3 2.87  43 2.87
  56  0.464  0.787  0.378-  54 2.43  42 2.43  60 2.48  40 2.48   8 2.49  52 2.49  58 2.82  38 2.83
                            44 2.85   4 2.88
  57  0.587  0.913  0.095-   7 2.48  59 2.48  53 2.48  61 2.48  41 2.48   9 2.48  11 2.87  55 2.87
                             5 2.87  45 2.87
  58  0.587  0.913  0.285-   8 2.42  60 2.42   7 2.45  59 2.45  62 2.48  54 2.48  42 2.48  10 2.48
                            56 2.82  12 2.82  11 2.83  55 2.84   6 2.87  46 2.87
  59  0.712  0.788  0.191-  46 2.44  58 2.45  57 2.48  45 2.48  55 2.48  63 2.48  11 2.48  43 2.48
                            42 2.83  62 2.84  41 2.87  61 2.87   7 2.87  47 2.87
  60  0.713  0.788  0.378-  58 2.42  46 2.43  56 2.48  44 2.48  64 2.48  12 2.49  62 2.81  42 2.82
                            48 2.87   8 2.87
  61  0.837  0.913  0.095-  11 2.48  63 2.48  57 2.48  49 2.48  45 2.48  13 2.48  59 2.87  15 2.87
                            33 2.87   9 2.87
  62  0.837  0.913  0.285-  64 2.43  12 2.43  11 2.45  63 2.45  58 2.48  50 2.48  46 2.48  14 2.49
                            60 2.81  16 2.82  59 2.84  15 2.84  10 2.87  34 2.88
  63  0.962  0.788  0.191-  34 2.45  62 2.45  61 2.48  33 2.48  51 2.48  59 2.48  15 2.48  47 2.48
                            46 2.83  50 2.84  49 2.87  45 2.87  35 2.87  11 2.87
  64  0.963  0.788  0.378-  62 2.43  34 2.43  48 2.48  52 2.48  16 2.48  60 2.48  50 2.81  46 2.83
                            36 2.87  12 2.88
 

IMPORTANT INFORMATION: All symmetrisations will be switched off!
NOSYMM: (Re-)initialisation of all symmetry stuff for point group C_1.

 
 

Automatic generation of k-mesh.
 generate k-points for:    4    4    2
Space group operators:
 irot       det(A)        alpha          n_x          n_y          n_z        tau_x        tau_y        tau_z
    1     1.000000     0.000000     1.000000     0.000000     0.000000     0.000000     0.000000     0.000000
 
 Subroutine IBZKPT returns following result:
 ===========================================
 
 Found     20 irreducible k-points:
 
 Following reciprocal coordinates:
            Coordinates               Weight
  0.000000  0.000000  0.000000      1.000000
  0.250000  0.000000  0.000000      2.000000
  0.500000  0.000000  0.000000      1.000000
  0.000000  0.250000  0.000000      2.000000
  0.250000  0.250000  0.000000      2.000000
  0.500000  0.250000  0.000000      2.000000
 -0.250000  0.250000  0.000000      2.000000
  0.000000  0.500000  0.000000      1.000000
  0.250000  0.500000  0.000000      2.000000
  0.500000  0.500000  0.000000      1.000000
  0.000000  0.000000  0.500000      1.000000
  0.250000  0.000000  0.500000      2.000000
  0.500000  0.000000  0.500000      1.000000
  0.000000  0.250000  0.500000      2.000000
  0.250000  0.250000  0.500000      2.000000
  0.500000  0.250000  0.500000      2.000000
 -0.250000  0.250000  0.500000      2.000000
  0.000000  0.500000  0.500000      1.000000
  0.250000  0.500000  0.500000      2.000000
  0.500000  0.500000  0.500000      1.000000
 
 Following cartesian coordinates:
            Coordinates               Weight
  0.000000  0.000000  0.000000      1.000000
  0.025177 -0.008902  0.000000      2.000000
  0.050355 -0.017803  0.000000      1.000000
  0.000000  0.026705  0.000000      2.000000
  0.025177  0.017803  0.000000      2.000000
  0.050355  0.008902  0.000000      2.000000
 -0.025177  0.035606  0.000000      2.000000
  0.000000  0.053410  0.000000      1.000000
  0.025177  0.044508  0.000000      2.000000
  0.050355  0.035606  0.000000      1.000000
  0.000000  0.000000  0.023719      1.000000
  0.025177 -0.008902  0.023719      2.000000
  0.050355 -0.017803  0.023719      1.000000
  0.000000  0.026705  0.023719      2.000000
  0.025177  0.017803  0.023719      2.000000
  0.050355  0.008902  0.023719      2.000000
 -0.025177  0.035606  0.023719      2.000000
  0.000000  0.053410  0.023719      1.000000
  0.025177  0.044508  0.023719      2.000000
  0.050355  0.035606  0.023719      1.000000
 
 TETIRR: Found     96 inequivalent tetrahedra from      192


--------------------------------------------------------------------------------------------------------




 Dimension of arrays:
   k-points           NKPTS =     20   k-points in BZ     NKDIM =     20   number of bands    NBANDS=    339
   number of dos      NEDOS =    301   number of ions     NIONS =     64
   non local maximal  LDIM  =      6   non local SUM 2l+1 LMDIM =     18
   total plane-waves  NPLWV = ******
   max r-space proj   IRMAX =   7948   max aug-charges    IRDMAX=  18812
   dimension x,y,z NGX =    80 NGY =   80 NGZ =  160
   dimension x,y,z NGXF=   160 NGYF=  160 NGZF=  320
   support grid    NGXF=   160 NGYF=  160 NGZF=  320
   ions per type =              64
   NGX,Y,Z   is equivalent  to a cutoff of  13.39, 13.39, 12.62 a.u.
   NGXF,Y,Z  is equivalent  to a cutoff of  26.79, 26.79, 25.24 a.u.

 SYSTEM =  SQS-NiFe                                
 POSCAR =  POSCAR                                  

 Startparameter for this run:
   NWRITE =      2    write-flag & timer
   PREC   = accura    normal or accurate (medium, high low for compatibility)
   ISTART =      0    job   : 0-new  1-cont  2-samecut
   ICHARG =     11    charge: 1-file 2-atom 10-const
   ISPIN  =      2    spin polarized calculation?
   LNONCOLLINEAR =      F non collinear calculations
   LSORBIT =      F    spin-orbit coupling
   INIWAV =      1    electr: 0-lowe 1-rand  2-diag
   LASPH  =      F    aspherical Exc in radial PAW
   METAGGA=      F    non-selfconsistent MetaGGA calc.

 Electronic Relaxation 1
   ENCUT  =  520.0 eV  38.22 Ry    6.18 a.u.  18.46 18.46 39.20*2*pi/ulx,y,z
   ENINI  =  520.0     initial cutoff
   ENAUG  =  511.4 eV  augmentation charge cutoff
   NELM   =    200;   NELMIN=  2; NELMDL=  0     # of ELM steps 
   EDIFF  = 0.1E-05   stopping-criterion for ELM
   LREAL  =      T    real-space projection
   NLSPLINE    = F    spline interpolate recip. space projectors
   LCOMPAT=      F    compatible to vasp.4.4
   GGA_COMPAT  = T    GGA compatible to vasp.4.4-vasp.4.6
   LMAXPAW     = -100 max onsite density
   LMAXMIX     =    2 max onsite mixed and CHGCAR
   VOSKOWN=      0    Vosko Wilk Nusair interpolation
   ROPT   =   -0.00025
 Ionic relaxation
   EDIFFG = -.2E-01   stopping-criterion for IOM
   NSW    =      0    number of steps for IOM
   NBLOCK =      1;   KBLOCK =      1    inner block; outer block 
   IBRION =     -1    ionic relax: 0-MD 1-quasi-New 2-CG
   NFREE  =      0    steps in history (QN), initial steepest desc. (CG)
   ISIF   =      2    stress and relaxation
   IWAVPR =     10    prediction:  0-non 1-charg 2-wave 3-comb
   ISYM   =      0    0-nonsym 1-usesym 2-fastsym
   LCORR  =      T    Harris-Foulkes like correction to forces

   POTIM  = 0.5000    time-step for ionic-motion
   TEIN   =    0.0    initial temperature
   TEBEG  =    0.0;   TEEND  =   0.0 temperature during run
   SMASS  =  -3.00    Nose mass-parameter (am)
   estimated Nose-frequenzy (Omega)   =  0.10E-29 period in steps =****** mass=  -0.225E-26a.u.
   SCALEE = 1.0000    scale energy and forces
   NPACO  =    256;   APACO  = 16.0  distance and # of slots for P.C.
   PSTRESS=    0.0 pullay stress

  Mass of Ions in am
   POMASS =  55.85
  Ionic Valenz
   ZVAL   =   8.00
  Atomic Wigner-Seitz radii
   RWIGS  =  -1.00
  virtual crystal weights 
   VCA    =   1.00
   NELECT =     512.0000    total number of electrons
   NUPDOWN=      -1.0000    fix difference up-down

 DOS related values:
   EMIN   =  10.00;   EMAX   =-10.00  energy-range for DOS
   EFERMI =   0.00
   ISMEAR =    -5;   SIGMA  =   0.20  broadening in eV -4-tet -1-fermi 0-gaus

 Electronic relaxation 2 (details)
   IALGO  =     68    algorithm
   LDIAG  =      T    sub-space diagonalisation (order eigenvalues)
   LSUBROT=      F    optimize rotation matrix (better conditioning)
   TURBO    =      0    0=normal 1=particle mesh
   IRESTART =      0    0=no restart 2=restart with 2 vectors
   NREBOOT  =      0    no. of reboots
   NMIN     =      0    reboot dimension
   EREF     =   0.00    reference energy to select bands
   IMIX   =      4    mixing-type and parameters
     AMIX     =   0.40;   BMIX     =  1.00
     AMIX_MAG =   1.60;   BMIX_MAG =  1.00
     AMIN     =   0.10
     WC   =   100.;   INIMIX=   1;  MIXPRE=   1;  MAXMIX= -45

 Intra band minimization:
   WEIMIN = 0.0000     energy-eigenvalue tresh-hold
   EBREAK =  0.74E-09  absolut break condition
   DEPER  =   0.30     relativ break condition  

   TIME   =   0.40     timestep for ELM

  volume/ion in A,a.u.               =      30.62       206.62
  Fermi-wavevector in a.u.,A,eV,Ry     =   1.046593  1.977775 14.903245  1.095358
  Thomas-Fermi vector in A             =   2.181438
 
 Write flags
   LWAVE        =      F    write WAVECAR
   LDOWNSAMPLE  =      F    k-point downsampling of WAVECAR
   LCHARG       =      F    write CHGCAR
   LVTOT        =      F    write LOCPOT, total local potential
   LVHAR        =      F    write LOCPOT, Hartree potential only
   LELF         =      F    write electronic localiz. function (ELF)
   LORBIT       =     11    0 simple, 1 ext, 2 COOP (PROOUT), +10 PAW based schemes


 Dipole corrections
   LMONO  =      F    monopole corrections only (constant potential shift)
   LDIPOL =      T    correct potential (dipole corrections)
   IDIPOL =      3    1-x, 2-y, 3-z, 4-all directions 
   EPSILON=  1.0000000 bulk dielectric constant

 Exchange correlation treatment:
   GGA     =    --    GGA type
   LEXCH   =     8    internal setting for exchange type
   VOSKOWN=      0    Vosko Wilk Nusair interpolation
   LHFCALC =     F    Hartree Fock is set to
   LHFONE  =     F    Hartree Fock one center treatment
   AEXX    =    0.0000 exact exchange contribution

 Linear response parameters
   LEPSILON=     F    determine dielectric tensor
   LRPA    =     F    only Hartree local field effects (RPA)
   LNABLA  =     F    use nabla operator in PAW spheres
   LVEL    =     F    velocity operator in full k-point grid
   LINTERFAST=   F  fast interpolation
   KINTER  =     0    interpolate to denser k-point grid
   CSHIFT  =0.1000    complex shift for real part using Kramers Kronig
   OMEGAMAX=  -1.0    maximum frequency
   DEG_THRESHOLD= 0.2000000E-02 threshold for treating states as degnerate
   RTIME   =   -0.100 relaxation time in fs
  (WPLASMAI=    0.000 imaginary part of plasma frequency in eV, 0.658/RTIME)
   DFIELD  = 0.0000000 0.0000000 0.0000000 field for delta impulse in time
 
 Orbital magnetization related:
   ORBITALMAG=     F  switch on orbital magnetization
   LCHIMAG   =     F  perturbation theory with respect to B field
   DQ        =  0.001000  dq finite difference perturbation B field
   LLRAUG    =     F  two centre corrections for induced B field



--------------------------------------------------------------------------------------------------------


 Static calculation
 charge density and potential remain constant during run
 spin polarized calculation
 RMM-DIIS sequential band-by-band and
  variant of blocked Davidson during initial phase
 perform sub-space diagonalisation
    before iterative eigenvector-optimisation
 no mixing
 using additional bands           83
 real space projection scheme for non local part
 use partial core corrections
 calculate Harris-corrections to forces 
   (improved forces if not selfconsistent)
 use gradient corrections 
 WARNING: stress and forces are not correct
  (second derivative of E(xc) not defined)
 use of overlap-Matrix (Vanderbilt PP)
 Fermi weights with tetrahedron method with Bloechl corrections


--------------------------------------------------------------------------------------------------------


  energy-cutoff  :      520.00
  volume of cell :     1959.57
      direct lattice vectors                 reciprocal lattice vectors
     9.929500870  0.000000000  0.000000000     0.100709997 -0.035606361  0.000000000
     3.309833620  9.361623200  0.000000000     0.000000000  0.106819082  0.000000000
     0.000000000  0.000000000 21.080552630     0.000000000  0.000000000  0.047437087

  length of vectors
     9.929500870  9.929500870 21.080552630     0.106819082  0.106819082  0.047437087


 
 k-points in units of 2pi/SCALE and weight: read from INCAR                         
   0.00000000  0.00000000  0.00000000       0.031
   0.02517750 -0.00890159  0.00000000       0.062
   0.05035500 -0.01780318  0.00000000       0.031
   0.00000000  0.02670477  0.00000000       0.062
   0.02517750  0.01780318  0.00000000       0.062
   0.05035500  0.00890159  0.00000000       0.062
  -0.02517750  0.03560636  0.00000000       0.062
   0.00000000  0.05340954  0.00000000       0.031
   0.02517750  0.04450795  0.00000000       0.062
   0.05035500  0.03560636  0.00000000       0.031
   0.00000000  0.00000000  0.02371854       0.031
   0.02517750 -0.00890159  0.02371854       0.062
   0.05035500 -0.01780318  0.02371854       0.031
   0.00000000  0.02670477  0.02371854       0.062
   0.02517750  0.01780318  0.02371854       0.062
   0.05035500  0.00890159  0.02371854       0.062
  -0.02517750  0.03560636  0.02371854       0.062
   0.00000000  0.05340954  0.02371854       0.031
   0.02517750  0.04450795  0.02371854       0.062
   0.05035500  0.03560636  0.02371854       0.031
 
 k-points in reciprocal lattice and weights: read from INCAR                         
   0.00000000  0.00000000  0.00000000       0.031
   0.25000000  0.00000000  0.00000000       0.062
   0.50000000  0.00000000  0.00000000       0.031
   0.00000000  0.25000000  0.00000000       0.062
   0.25000000  0.25000000  0.00000000       0.062
   0.50000000  0.25000000  0.00000000       0.062
  -0.25000000  0.25000000  0.00000000       0.062
   0.00000000  0.50000000  0.00000000       0.031
   0.25000000  0.50000000  0.00000000       0.062
   0.50000000  0.50000000  0.00000000       0.031
   0.00000000  0.00000000  0.50000000       0.031
   0.25000000  0.00000000  0.50000000       0.062
   0.50000000  0.00000000  0.50000000       0.031
   0.00000000  0.25000000  0.50000000       0.062
   0.25000000  0.25000000  0.50000000       0.062
   0.50000000  0.25000000  0.50000000       0.062
  -0.25000000  0.25000000  0.50000000       0.062
   0.00000000  0.50000000  0.50000000       0.031
   0.25000000  0.50000000  0.50000000       0.062
   0.50000000  0.50000000  0.50000000       0.031
 
 position of ions in fractional coordinates (direct lattice) 
   0.08738889  0.16261111  0.09487417
   0.08693547  0.16285521  0.28506222
   0.21238889  0.03761111  0.19102207
   0.21173785  0.03714089  0.37816417
   0.33738889  0.16261111  0.09487417
   0.33695548  0.16298144  0.28470175
   0.46238889  0.03761111  0.19102207
   0.46169774  0.03765292  0.37748849
   0.58738889  0.16261111  0.09487417
   0.58689509  0.16307853  0.28443650
   0.71238889  0.03761111  0.19102207
   0.71127676  0.03880340  0.37814007
   0.83738889  0.16261111  0.09487417
   0.83678558  0.16344001  0.28455300
   0.96238889  0.03761111  0.19102207
   0.96169823  0.03813613  0.37801946
   0.08738889  0.41261111  0.09487417
   0.08763235  0.41227142  0.28448798
   0.21238889  0.28761111  0.19102207
   0.21231440  0.28684981  0.37804628
   0.33738889  0.41261111  0.09487417
   0.33790352  0.41211771  0.28420386
   0.46238889  0.28761111  0.19102207
   0.46265700  0.28799620  0.37787159
   0.58738889  0.41261111  0.09487417
   0.58739071  0.41291867  0.28408573
   0.71238889  0.28761111  0.19102207
   0.71195208  0.28825815  0.37768494
   0.83738889  0.41261111  0.09487417
   0.83708503  0.41306977  0.28454866
   0.96238889  0.28761111  0.19102207
   0.96231785  0.28834777  0.37757403
   0.08738889  0.66261111  0.09487417
   0.08797976  0.66196332  0.28500208
   0.21238889  0.53761111  0.19102207
   0.21278741  0.53650469  0.37772990
   0.33738889  0.66261111  0.09487417
   0.33813654  0.66146990  0.28444857
   0.46238889  0.53761111  0.19102207
   0.46257440  0.53737056  0.37778664
   0.58738889  0.66261111  0.09487417
   0.58768867  0.66257393  0.28448673
   0.71238889  0.53761111  0.19102207
   0.71240301  0.53792326  0.37779728
   0.83738889  0.66261111  0.09487417
   0.83778731  0.66240254  0.28471760
   0.96238889  0.53761111  0.19102207
   0.96285256  0.53762301  0.37794163
   0.08738889  0.91261111  0.09487417
   0.08732620  0.91249956  0.28545119
   0.21238889  0.78761111  0.19102207
   0.21319099  0.78679529  0.37776485
   0.33738889  0.91261111  0.09487417
   0.33762544  0.91221244  0.28508784
   0.46238889  0.78761111  0.19102207
   0.46354669  0.78677326  0.37807694
   0.58738889  0.91261111  0.09487417
   0.58726713  0.91281334  0.28506841
   0.71238889  0.78761111  0.19102207
   0.71258552  0.78769661  0.37775893
   0.83738889  0.91261111  0.09487417
   0.83701822  0.91291445  0.28523021
   0.96238889  0.78761111  0.19102207
   0.96280903  0.78765289  0.37817419
 
 position of ions in cartesian coordinates  (Angst):
   1.40594378  1.52230394  1.99999993
   1.40224944  1.52458909  6.00926919
   2.23340218  0.35210104  4.02685080
   2.22538136  0.34769906  7.97190961
   3.88831900  1.52230394  1.99999993
   3.88524117  1.52577084  6.00167013
   4.71577740  0.35210104  4.02685080
   4.70905304  0.35249248  7.95766589
   6.37069421  1.52230394  1.99999993
   6.36733809  1.52667975  5.99607867
   7.19815262  0.35210104  4.02685080
   7.19105600  0.36326276  7.97140173
   8.85306943  1.52230394  1.99999993
   8.84982239  1.53006382  5.99853442
   9.68052784  0.35210104  4.02685080
   9.67540767  0.35701610  7.96885917
   2.23340218  3.86270974  1.99999993
   2.23469528  3.85952966  5.99716379
   3.06086059  2.69250684  4.02685080
   3.05760119  2.68537987  7.96942440
   4.71577740  3.86270974  1.99999993
   4.71925440  3.85809075  5.99117440
   5.54323581  2.69250684  4.02685080
   5.54717258  2.69611191  7.96574193
   7.19815262  3.86270974  1.99999993
   7.19918869  3.86558897  5.98868426
   8.02561102  2.69250684  4.02685080
   8.02341531  2.69856414  7.96180719
   9.68052784  3.86270974  1.99999993
   9.67902869  3.86700352  5.99844305
  10.50798624  2.69250684  4.02685080
  10.50971904  2.69940319  7.95946918
   3.06086059  6.20311554  1.99999993
   3.06458356  6.19705119  6.00800130
   3.88831899  5.03291264  4.02685080
   3.88861404  5.02255474  7.96275511
   5.54323581  6.20311554  1.99999993
   5.54688238  6.19243195  5.99633300
   6.37069421  5.03291264  4.02685080
   6.37174002  5.03066067  7.96395113
   8.02561102  6.20311554  1.99999993
   8.02846461  6.20276749  5.99713746
   8.85306943  5.03291264  4.02685080
   8.85424284  5.03583486  7.96417541
  10.50798624  6.20311554  1.99999993
  10.51125199  6.20116294  6.00200429
  11.33544465  5.03291264  4.02685080
  11.34008800  5.03302400  7.96721851
   3.88831899  8.54352134  1.99999993
   3.88732733  8.54247704  6.01746888
   4.71577740  7.37331844  4.02685080
   4.72104158  7.36568102  7.96349184
   6.37069421  8.54352134  1.99999993
   6.37172353  8.53978911  6.00980912
   7.19815262  7.37331844  4.02685080
   7.20687582  7.36547476  7.97007080
   8.85306943  8.54352134  1.99999993
   8.85252974  8.54541457  6.00939967
   9.68052783  7.37331844  4.02685080
   9.68276324  7.37411890  7.96336694
  11.33544465  8.54352134  1.99999993
  11.33276804  8.54636109  6.01281043
  12.16290305  7.37331844  4.02685080
  12.16721309  7.37370958  7.97212088
 


--------------------------------------------------------------------------------------------------------


 k-point  1 :   0.0000 0.0000 0.0000  plane waves:   52797
 k-point  2 :   0.2500 0.0000 0.0000  plane waves:   52779
 k-point  3 :   0.5000 0.0000 0.0000  plane waves:   52744
 k-point  4 :   0.0000 0.2500 0.0000  plane waves:   52779
 k-point  5 :   0.2500 0.2500 0.0000  plane waves:   52750
 k-point  6 :   0.5000 0.2500 0.0000  plane waves:   52748
 k-point  7 :  -0.2500 0.2500 0.0000  plane waves:   52735
 k-point  8 :   0.0000 0.5000 0.0000  plane waves:   52744
 k-point  9 :   0.2500 0.5000 0.0000  plane waves:   52748
 k-point 10 :   0.5000 0.5000 0.0000  plane waves:   52708
 k-point 11 :   0.0000 0.0000 0.5000  plane waves:   52814
 k-point 12 :   0.2500 0.0000 0.5000  plane waves:   52780
 k-point 13 :   0.5000 0.0000 0.5000  plane waves:   52804
 k-point 14 :   0.0000 0.2500 0.5000  plane waves:   52780
 k-point 15 :   0.2500 0.2500 0.5000  plane waves:   52788
 k-point 16 :   0.5000 0.2500 0.5000  plane waves:   52750
 k-point 17 :  -0.2500 0.2500 0.5000  plane waves:   52762
 k-point 18 :   0.0000 0.5000 0.5000  plane waves:   52804
 k-point 19 :   0.2500 0.5000 0.5000  plane waves:   52750
 k-point 20 :   0.5000 0.5000 0.5000  plane waves:   52708

 maximum and minimum number of plane-waves per node :      2226     2176

 maximum number of plane-waves:     52814
 maximum index in each direction: 
   IXMAX=   18   IYMAX=   18   IZMAX=   39
   IXMIN=  -18   IYMIN=  -18   IZMIN=  -39


 real space projection operators:
  total allocation   :      68573.81 KBytes
  max/ min on nodes  :       3472.45       2521.12


 parallel 3D FFT for wavefunctions:
    minimum data exchange during FFTs selected (reduces bandwidth)
 parallel 3D FFT for charge:
    minimum data exchange during FFTs selected (reduces bandwidth)


 total amount of memory used by VASP MPI-rank0   228920. kBytes
=======================================================================

   base      :      30000. kBytes
   nonlr-proj:      12751. kBytes
   fftplans  :       6402. kBytes
   grid      :      15219. kBytes
   one-center:         93. kBytes
   wavefun   :     164455. kBytes
 
     INWAV:  cpu time    0.0009: real time    0.0007
 initial charge density was supplied:
 number of electron     512.0000374 magnetization     130.3550902
 keeping initial charge density in first step


--------------------------------------------------------------------------------------------------------


 Maximum index for non-local projection operator          791
 Maximum index for augmentation-charges         1213 (set IRDMAX)


--------------------------------------------------------------------------------------------------------


 First call to EWALD:  gamma=   0.142
 Maximum number of real-space cells 4x 4x 2
 Maximum number of reciprocal cells 2x 2x 4

    FEWALD:  cpu time    0.0034: real time    0.0339


--------------------------------------- Iteration      1(   1)  ---------------------------------------


    POTLOK:  cpu time    0.4112: real time    0.7195
    SETDIJ:  cpu time    0.0267: real time    0.1030
     EDDAV:  cpu time  117.9348: real time  118.2796
 BZINTS: Fermi energy:  9.947191;512.000000 electrons
         Band energy:3193.240446;  BLOECHL correction: -0.007629
       DOS:  cpu time    0.1977: real time    0.3059
    --------------------------------------------
      LOOP:  cpu time  118.5705: real time  119.4081

 eigenvalue-minimisations  : 27129
 total energy-change (2. order) : 0.4146150E+04  (-0.2127982E+05)
 number of electron     512.0000374 magnetization     130.3550902
 augmentation part      512.0000374 magnetization     130.3550902

 DIPCOR: dipole corrections for dipol
 direction  3 min pos   237,
 dipolmoment           0.000000      0.000000     -0.002583 electrons x Angstroem
 Tr[quadrupol]     -8383.837287

 energy correction for charged system         0.000000 eV
 dipol+quadrupol energy correction           -0.000000 eV
 added-field ion interaction         -0.000968 eV  (added to PSCEN)


 Free energy of the ion-electron system (eV)
  ---------------------------------------------------
  alpha Z        PSCENC =      1444.65355568
  Ewald energy   TEWEN  =    142910.52032421
  -Hartree energ DENC   =   -181133.61054419
  -exchange      EXHF   =         0.00000000
  -V(xc)+E(xc)   XCENC  =       271.43883656
  PAW double counting   =     44436.05249042   -45012.15649472
  entropy T*S    EENTRO =         0.00000000
  eigenvalues    EBANDS =      3193.24044564
  atomic energy  EATOM  =     38036.01156502
  Solvation  Ediel_sol  =         0.00000000
  ---------------------------------------------------
  free energy    TOTEN  =      4146.15017862 eV

  energy without entropy =     4146.15017862  energy(sigma->0) =     4146.15017862


--------------------------------------------------------------------------------------------------------




--------------------------------------- Iteration      1(   2)  ---------------------------------------


     EDDAV:  cpu time  117.9423: real time  117.9892
 BZINTS: Fermi energy:  0.737674;512.000000 electrons
         Band energy:***********;  BLOECHL correction: -0.003175
       DOS:  cpu time    0.1990: real time    0.1990
    --------------------------------------------
      LOOP:  cpu time  118.1412: real time  118.1882

 eigenvalue-minimisations  : 27120
 total energy-change (2. order) :-0.4255732E+04  (-0.4033548E+04)
 number of electron     512.0000374 magnetization     130.3550902
 augmentation part      512.0000374 magnetization     130.3550902

 DIPCOR: dipole corrections for dipol
 direction  3 min pos   237,
 dipolmoment           0.000000      0.000000     -0.002583 electrons x Angstroem
 Tr[quadrupol]     -8383.837287

 energy correction for charged system         0.000000 eV
 dipol+quadrupol energy correction           -0.000000 eV
 added-field ion interaction         -0.000968 eV  (added to PSCEN)


 Free energy of the ion-electron system (eV)
  ---------------------------------------------------
  alpha Z        PSCENC =      1444.65355568
  Ewald energy   TEWEN  =    142910.52032421
  -Hartree energ DENC   =   -181133.61054419
  -exchange      EXHF   =         0.00000000
  -V(xc)+E(xc)   XCENC  =       271.43883656
  PAW double counting   =     44436.05249042   -45012.15649472
  entropy T*S    EENTRO =         0.00000000
  eigenvalues    EBANDS =     -1062.49133728
  atomic energy  EATOM  =     38036.01156502
  Solvation  Ediel_sol  =         0.00000000
  ---------------------------------------------------
  free energy    TOTEN  =      -109.58160429 eV

  energy without entropy =     -109.58160429  energy(sigma->0) =     -109.58160429


--------------------------------------------------------------------------------------------------------




--------------------------------------- Iteration      1(   3)  ---------------------------------------


     EDDAV:  cpu time  122.7628: real time  122.8113
 BZINTS: Fermi energy: -0.341548;512.000000 electrons
         Band energy:***********;  BLOECHL correction: -0.015851
       DOS:  cpu time    0.1897: real time    0.1898
    --------------------------------------------
      LOOP:  cpu time  122.9526: real time  123.0012

 eigenvalue-minimisations  : 28563
 total energy-change (2. order) :-0.3329147E+03  (-0.2919127E+03)
 number of electron     512.0000374 magnetization     130.3550902
 augmentation part      512.0000374 magnetization     130.3550902

 DIPCOR: dipole corrections for dipol
 direction  3 min pos   237,
 dipolmoment           0.000000      0.000000     -0.002583 electrons x Angstroem
 Tr[quadrupol]     -8383.837287

 energy correction for charged system         0.000000 eV
 dipol+quadrupol energy correction           -0.000000 eV
 added-field ion interaction         -0.000968 eV  (added to PSCEN)


 Free energy of the ion-electron system (eV)
  ---------------------------------------------------
  alpha Z        PSCENC =      1444.65355568
  Ewald energy   TEWEN  =    142910.52032421
  -Hartree energ DENC   =   -181133.61054419
  -exchange      EXHF   =         0.00000000
  -V(xc)+E(xc)   XCENC  =       271.43883656
  PAW double counting   =     44436.05249042   -45012.15649472
  entropy T*S    EENTRO =         0.00000000
  eigenvalues    EBANDS =     -1395.40601928
  atomic energy  EATOM  =     38036.01156502
  Solvation  Ediel_sol  =         0.00000000
  ---------------------------------------------------
  free energy    TOTEN  =      -442.49628629 eV

  energy without entropy =     -442.49628629  energy(sigma->0) =     -442.49628629


--------------------------------------------------------------------------------------------------------




--------------------------------------- Iteration      1(   4)  ---------------------------------------


     EDDAV:  cpu time  189.0293: real time  189.0987
 BZINTS: Fermi energy: -0.583690;512.000000 electrons
         Band energy:***********;  BLOECHL correction: -0.016536
       DOS:  cpu time    0.1878: real time    0.1878
    --------------------------------------------
      LOOP:  cpu time  189.2171: real time  189.2866

 eigenvalue-minimisations  : 49083
 total energy-change (2. order) :-0.4906137E+02  (-0.4502856E+02)
 number of electron     512.0000374 magnetization     130.3550902
 augmentation part      512.0000374 magnetization     130.3550902

 DIPCOR: dipole corrections for dipol
 direction  3 min pos   237,
 dipolmoment           0.000000      0.000000     -0.002583 electrons x Angstroem
 Tr[quadrupol]     -8383.837287

 energy correction for charged system         0.000000 eV
 dipol+quadrupol energy correction           -0.000000 eV
 added-field ion interaction         -0.000968 eV  (added to PSCEN)


 Free energy of the ion-electron system (eV)
  ---------------------------------------------------
  alpha Z        PSCENC =      1444.65355568
  Ewald energy   TEWEN  =    142910.52032421
  -Hartree energ DENC   =   -181133.61054419
  -exchange      EXHF   =         0.00000000
  -V(xc)+E(xc)   XCENC  =       271.43883656
  PAW double counting   =     44436.05249042   -45012.15649472
  entropy T*S    EENTRO =         0.00000000
  eigenvalues    EBANDS =     -1444.46738616
  atomic energy  EATOM  =     38036.01156502
  Solvation  Ediel_sol  =         0.00000000
  ---------------------------------------------------
  free energy    TOTEN  =      -491.55765317 eV

  energy without entropy =     -491.55765317  energy(sigma->0) =     -491.55765317


--------------------------------------------------------------------------------------------------------




--------------------------------------- Iteration      1(   5)  ---------------------------------------


     EDDAV:  cpu time  171.0848: real time  171.1593
 BZINTS: Fermi energy: -0.619568;512.000000 electrons
         Band energy:***********;  BLOECHL correction: -0.016901
       DOS:  cpu time    0.1905: real time    0.1939
    --------------------------------------------
      LOOP:  cpu time  171.2753: real time  171.3532

 eigenvalue-minimisations  : 43566
 total energy-change (2. order) :-0.4169157E+01  (-0.3943214E+01)
 number of electron     512.0000374 magnetization     130.3550902
 augmentation part      512.0000374 magnetization     130.3550902

 DIPCOR: dipole corrections for dipol
 direction  3 min pos   237,
 dipolmoment           0.000000      0.000000     -0.002583 electrons x Angstroem
 Tr[quadrupol]     -8383.837287

 energy correction for charged system         0.000000 eV
 dipol+quadrupol energy correction           -0.000000 eV
 added-field ion interaction         -0.000968 eV  (added to PSCEN)


 Free energy of the ion-electron system (eV)
  ---------------------------------------------------
  alpha Z        PSCENC =      1444.65355568
  Ewald energy   TEWEN  =    142910.52032421
  -Hartree energ DENC   =   -181133.61054419
  -exchange      EXHF   =         0.00000000
  -V(xc)+E(xc)   XCENC  =       271.43883656
  PAW double counting   =     44436.05249042   -45012.15649472
  entropy T*S    EENTRO =         0.00000000
  eigenvalues    EBANDS =     -1448.63654357
  atomic energy  EATOM  =     38036.01156502
  Solvation  Ediel_sol  =         0.00000000
  ---------------------------------------------------
  free energy    TOTEN  =      -495.72681058 eV

  energy without entropy =     -495.72681058  energy(sigma->0) =     -495.72681058


--------------------------------------------------------------------------------------------------------




--------------------------------------- Iteration      1(   6)  ---------------------------------------


    EDDIAG:  cpu time   18.1261: real time   18.1572
  RMM-DIIS:  cpu time   70.4079: real time   70.4352
    ORTHCH:  cpu time    4.8029: real time    4.8039
 BZINTS: Fermi energy: -0.621824;512.000000 electrons
         Band energy:***********;  BLOECHL correction: -0.016747
       DOS:  cpu time    0.1865: real time    0.1865
    --------------------------------------------
      LOOP:  cpu time   93.5233: real time   93.5828

 eigenvalue-minimisations  : 29354
 total energy-change (2. order) :-0.2114109E+00  (-0.2106803E+00)
 number of electron     512.0000374 magnetization     130.3550902
 augmentation part      512.0000374 magnetization     130.3550902

 DIPCOR: dipole corrections for dipol
 direction  3 min pos   237,
 dipolmoment           0.000000      0.000000     -0.002583 electrons x Angstroem
 Tr[quadrupol]     -8383.837287

 energy correction for charged system         0.000000 eV
 dipol+quadrupol energy correction           -0.000000 eV
 added-field ion interaction         -0.000968 eV  (added to PSCEN)


 Free energy of the ion-electron system (eV)
  ---------------------------------------------------
  alpha Z        PSCENC =      1444.65355568
  Ewald energy   TEWEN  =    142910.52032421
  -Hartree energ DENC   =   -181133.61054419
  -exchange      EXHF   =         0.00000000
  -V(xc)+E(xc)   XCENC  =       271.43883656
  PAW double counting   =     44436.05249042   -45012.15649472
  entropy T*S    EENTRO =         0.00000000
  eigenvalues    EBANDS =     -1448.84795448
  atomic energy  EATOM  =     38036.01156502
  Solvation  Ediel_sol  =         0.00000000
  ---------------------------------------------------
  free energy    TOTEN  =      -495.93822149 eV

  energy without entropy =     -495.93822149  energy(sigma->0) =     -495.93822149


--------------------------------------------------------------------------------------------------------




--------------------------------------- Iteration      1(   7)  ---------------------------------------


    EDDIAG:  cpu time   18.0999: real time   18.1124
  RMM-DIIS:  cpu time  101.5185: real time  101.5591
    ORTHCH:  cpu time    4.7985: real time    4.7996
 BZINTS: Fermi energy: -0.624988;512.000000 electrons
         Band energy:***********;  BLOECHL correction: -0.016215
       DOS:  cpu time    0.1602: real time    0.1603
    --------------------------------------------
      LOOP:  cpu time  124.5771: real time  124.6313

 eigenvalue-minimisations  : 43024
 total energy-change (2. order) :-0.1242180E+00  (-0.1194214E+00)
 number of electron     512.0000374 magnetization     130.3550902
 augmentation part      512.0000374 magnetization     130.3550902

 DIPCOR: dipole corrections for dipol
 direction  3 min pos   237,
 dipolmoment           0.000000      0.000000     -0.002583 electrons x Angstroem
 Tr[quadrupol]     -8383.837287

 energy correction for charged system         0.000000 eV
 dipol+quadrupol energy correction           -0.000000 eV
 added-field ion interaction         -0.000968 eV  (added to PSCEN)


 Free energy of the ion-electron system (eV)
  ---------------------------------------------------
  alpha Z        PSCENC =      1444.65355568
  Ewald energy   TEWEN  =    142910.52032421
  -Hartree energ DENC   =   -181133.61054419
  -exchange      EXHF   =         0.00000000
  -V(xc)+E(xc)   XCENC  =       271.43883656
  PAW double counting   =     44436.05249042   -45012.15649472
  entropy T*S    EENTRO =         0.00000000
  eigenvalues    EBANDS =     -1448.97217253
  atomic energy  EATOM  =     38036.01156502
  Solvation  Ediel_sol  =         0.00000000
  ---------------------------------------------------
  free energy    TOTEN  =      -496.06243954 eV

  energy without entropy =     -496.06243954  energy(sigma->0) =     -496.06243954


--------------------------------------------------------------------------------------------------------




--------------------------------------- Iteration      1(   8)  ---------------------------------------


    EDDIAG:  cpu time   18.1035: real time   18.1183
  RMM-DIIS:  cpu time  101.2247: real time  101.2680
    ORTHCH:  cpu time    4.8033: real time    4.8042
 BZINTS: Fermi energy: -0.627014;512.000000 electrons
         Band energy:***********;  BLOECHL correction: -0.015801
       DOS:  cpu time    0.1770: real time    0.1771
    --------------------------------------------
      LOOP:  cpu time  124.3085: real time  124.3676

 eigenvalue-minimisations  : 42946
 total energy-change (2. order) :-0.4252838E-01  (-0.3975190E-01)
 number of electron     512.0000374 magnetization     130.3550902
 augmentation part      512.0000374 magnetization     130.3550902

 DIPCOR: dipole corrections for dipol
 direction  3 min pos   237,
 dipolmoment           0.000000      0.000000     -0.002583 electrons x Angstroem
 Tr[quadrupol]     -8383.837287

 energy correction for charged system         0.000000 eV
 dipol+quadrupol energy correction           -0.000000 eV
 added-field ion interaction         -0.000968 eV  (added to PSCEN)


 Free energy of the ion-electron system (eV)
  ---------------------------------------------------
  alpha Z        PSCENC =      1444.65355568
  Ewald energy   TEWEN  =    142910.52032421
  -Hartree energ DENC   =   -181133.61054419
  -exchange      EXHF   =         0.00000000
  -V(xc)+E(xc)   XCENC  =       271.43883656
  PAW double counting   =     44436.05249042   -45012.15649472
  entropy T*S    EENTRO =         0.00000000
  eigenvalues    EBANDS =     -1449.01470090
  atomic energy  EATOM  =     38036.01156502
  Solvation  Ediel_sol  =         0.00000000
  ---------------------------------------------------
  free energy    TOTEN  =      -496.10496791 eV

  energy without entropy =     -496.10496791  energy(sigma->0) =     -496.10496791


--------------------------------------------------------------------------------------------------------




--------------------------------------- Iteration      1(   9)  ---------------------------------------


    EDDIAG:  cpu time   18.1022: real time   18.1162
  RMM-DIIS:  cpu time   90.1546: real time   90.1890
    ORTHCH:  cpu time    4.8066: real time    4.8077
 BZINTS: Fermi energy: -0.627474;512.000000 electrons
         Band energy:***********;  BLOECHL correction: -0.015682
       DOS:  cpu time    0.1806: real time    0.1806
    --------------------------------------------
      LOOP:  cpu time  113.2440: real time  113.2934

 eigenvalue-minimisations  : 37892
 total energy-change (2. order) :-0.6358665E-02  (-0.4720234E-02)
 number of electron     512.0000374 magnetization     130.3550902
 augmentation part      512.0000374 magnetization     130.3550902

 DIPCOR: dipole corrections for dipol
 direction  3 min pos   237,
 dipolmoment           0.000000      0.000000     -0.002583 electrons x Angstroem
 Tr[quadrupol]     -8383.837287

 energy correction for charged system         0.000000 eV
 dipol+quadrupol energy correction           -0.000000 eV
 added-field ion interaction         -0.000968 eV  (added to PSCEN)


 Free energy of the ion-electron system (eV)
  ---------------------------------------------------
  alpha Z        PSCENC =      1444.65355568
  Ewald energy   TEWEN  =    142910.52032421
  -Hartree energ DENC   =   -181133.61054419
  -exchange      EXHF   =         0.00000000
  -V(xc)+E(xc)   XCENC  =       271.43883656
  PAW double counting   =     44436.05249042   -45012.15649472
  entropy T*S    EENTRO =         0.00000000
  eigenvalues    EBANDS =     -1449.02105957
  atomic energy  EATOM  =     38036.01156502
  Solvation  Ediel_sol  =         0.00000000
  ---------------------------------------------------
  free energy    TOTEN  =      -496.11132658 eV

  energy without entropy =     -496.11132658  energy(sigma->0) =     -496.11132658


--------------------------------------------------------------------------------------------------------




--------------------------------------- Iteration      1(  10)  ---------------------------------------


    EDDIAG:  cpu time   18.1039: real time   18.1179
  RMM-DIIS:  cpu time   85.8358: real time   85.8707
    ORTHCH:  cpu time    4.8051: real time    4.8062
 BZINTS: Fermi energy: -0.627681;512.000000 electrons
         Band energy:***********;  BLOECHL correction: -0.015629
       DOS:  cpu time    0.1806: real time    0.1806
    --------------------------------------------
      LOOP:  cpu time  108.9253: real time  108.9754

 eigenvalue-minimisations  : 36088
 total energy-change (2. order) :-0.1958444E-02  (-0.1841074E-02)
 number of electron     512.0000374 magnetization     130.3550902
 augmentation part      512.0000374 magnetization     130.3550902

 DIPCOR: dipole corrections for dipol
 direction  3 min pos   237,
 dipolmoment           0.000000      0.000000     -0.002583 electrons x Angstroem
 Tr[quadrupol]     -8383.837287

 energy correction for charged system         0.000000 eV
 dipol+quadrupol energy correction           -0.000000 eV
 added-field ion interaction         -0.000968 eV  (added to PSCEN)


 Free energy of the ion-electron system (eV)
  ---------------------------------------------------
  alpha Z        PSCENC =      1444.65355568
  Ewald energy   TEWEN  =    142910.52032421
  -Hartree energ DENC   =   -181133.61054419
  -exchange      EXHF   =         0.00000000
  -V(xc)+E(xc)   XCENC  =       271.43883656
  PAW double counting   =     44436.05249042   -45012.15649472
  entropy T*S    EENTRO =         0.00000000
  eigenvalues    EBANDS =     -1449.02301801
  atomic energy  EATOM  =     38036.01156502
  Solvation  Ediel_sol  =         0.00000000
  ---------------------------------------------------
  free energy    TOTEN  =      -496.11328502 eV

  energy without entropy =     -496.11328502  energy(sigma->0) =     -496.11328502


--------------------------------------------------------------------------------------------------------




--------------------------------------- Iteration      1(  11)  ---------------------------------------


    EDDIAG:  cpu time   18.1086: real time   18.1222
  RMM-DIIS:  cpu time   69.4689: real time   69.4955
    ORTHCH:  cpu time    4.8001: real time    4.8011
 BZINTS: Fermi energy: -0.627734;512.000000 electrons
         Band energy:***********;  BLOECHL correction: -0.015610
       DOS:  cpu time    0.1803: real time    0.1804
    --------------------------------------------
      LOOP:  cpu time   92.5579: real time   92.5991

 eigenvalue-minimisations  : 28642
 total energy-change (2. order) :-0.3359171E-03  (-0.2990326E-03)
 number of electron     512.0000374 magnetization     130.3550902
 augmentation part      512.0000374 magnetization     130.3550902

 DIPCOR: dipole corrections for dipol
 direction  3 min pos   237,
 dipolmoment           0.000000      0.000000     -0.002583 electrons x Angstroem
 Tr[quadrupol]     -8383.837287

 energy correction for charged system         0.000000 eV
 dipol+quadrupol energy correction           -0.000000 eV
 added-field ion interaction         -0.000968 eV  (added to PSCEN)


 Free energy of the ion-electron system (eV)
  ---------------------------------------------------
  alpha Z        PSCENC =      1444.65355568
  Ewald energy   TEWEN  =    142910.52032421
  -Hartree energ DENC   =   -181133.61054419
  -exchange      EXHF   =         0.00000000
  -V(xc)+E(xc)   XCENC  =       271.43883656
  PAW double counting   =     44436.05249042   -45012.15649472
  entropy T*S    EENTRO =         0.00000000
  eigenvalues    EBANDS =     -1449.02335393
  atomic energy  EATOM  =     38036.01156502
  Solvation  Ediel_sol  =         0.00000000
  ---------------------------------------------------
  free energy    TOTEN  =      -496.11362094 eV

  energy without entropy =     -496.11362094  energy(sigma->0) =     -496.11362094


--------------------------------------------------------------------------------------------------------




--------------------------------------- Iteration      1(  12)  ---------------------------------------


    EDDIAG:  cpu time   18.1296: real time   18.1442
  RMM-DIIS:  cpu time   67.8027: real time   67.8285
    ORTHCH:  cpu time    4.8113: real time    4.8123
 BZINTS: Fermi energy: -0.627758;512.000000 electrons
         Band energy:***********;  BLOECHL correction: -0.015601
       DOS:  cpu time    0.1758: real time    0.1758
    --------------------------------------------
      LOOP:  cpu time   90.9194: real time   90.9608

 eigenvalue-minimisations  : 27877
 total energy-change (2. order) :-0.1320091E-03  (-0.1328547E-03)
 number of electron     512.0000374 magnetization     130.3550902
 augmentation part      512.0000374 magnetization     130.3550902

 DIPCOR: dipole corrections for dipol
 direction  3 min pos   237,
 dipolmoment           0.000000      0.000000     -0.002583 electrons x Angstroem
 Tr[quadrupol]     -8383.837287

 energy correction for charged system         0.000000 eV
 dipol+quadrupol energy correction           -0.000000 eV
 added-field ion interaction         -0.000968 eV  (added to PSCEN)


 Free energy of the ion-electron system (eV)
  ---------------------------------------------------
  alpha Z        PSCENC =      1444.65355568
  Ewald energy   TEWEN  =    142910.52032421
  -Hartree energ DENC   =   -181133.61054419
  -exchange      EXHF   =         0.00000000
  -V(xc)+E(xc)   XCENC  =       271.43883656
  PAW double counting   =     44436.05249042   -45012.15649472
  entropy T*S    EENTRO =         0.00000000
  eigenvalues    EBANDS =     -1449.02348594
  atomic energy  EATOM  =     38036.01156502
  Solvation  Ediel_sol  =         0.00000000
  ---------------------------------------------------
  free energy    TOTEN  =      -496.11375295 eV

  energy without entropy =     -496.11375295  energy(sigma->0) =     -496.11375295


--------------------------------------------------------------------------------------------------------




--------------------------------------- Iteration      1(  13)  ---------------------------------------


    EDDIAG:  cpu time   18.0920: real time   18.1064
  RMM-DIIS:  cpu time   58.7176: real time   58.7390
    ORTHCH:  cpu time    4.8132: real time    4.8142
 BZINTS: Fermi energy: -0.627764;512.000000 electrons
         Band energy:***********;  BLOECHL correction: -0.015598
       DOS:  cpu time    0.1544: real time    0.1545
    --------------------------------------------
      LOOP:  cpu time   81.7774: real time   81.8140

 eigenvalue-minimisations  : 23731
 total energy-change (2. order) :-0.2473599E-04  (-0.2500750E-04)
 number of electron     512.0000374 magnetization     130.3550902
 augmentation part      512.0000374 magnetization     130.3550902

 DIPCOR: dipole corrections for dipol
 direction  3 min pos   237,
 dipolmoment           0.000000      0.000000     -0.002583 electrons x Angstroem
 Tr[quadrupol]     -8383.837287

 energy correction for charged system         0.000000 eV
 dipol+quadrupol energy correction           -0.000000 eV
 added-field ion interaction         -0.000968 eV  (added to PSCEN)


 Free energy of the ion-electron system (eV)
  ---------------------------------------------------
  alpha Z        PSCENC =      1444.65355568
  Ewald energy   TEWEN  =    142910.52032421
  -Hartree energ DENC   =   -181133.61054419
  -exchange      EXHF   =         0.00000000
  -V(xc)+E(xc)   XCENC  =       271.43883656
  PAW double counting   =     44436.05249042   -45012.15649472
  entropy T*S    EENTRO =         0.00000000
  eigenvalues    EBANDS =     -1449.02351068
  atomic energy  EATOM  =     38036.01156502
  Solvation  Ediel_sol  =         0.00000000
  ---------------------------------------------------
  free energy    TOTEN  =      -496.11377769 eV

  energy without entropy =     -496.11377769  energy(sigma->0) =     -496.11377769


--------------------------------------------------------------------------------------------------------




--------------------------------------- Iteration      1(  14)  ---------------------------------------


    EDDIAG:  cpu time   18.1174: real time   18.1318
  RMM-DIIS:  cpu time   54.9138: real time   54.9342
    ORTHCH:  cpu time    4.7946: real time    4.7956
 BZINTS: Fermi energy: -0.627767;512.000000 electrons
         Band energy:***********;  BLOECHL correction: -0.015597
       DOS:  cpu time    0.1755: real time    0.1755
    --------------------------------------------
      LOOP:  cpu time   78.0013: real time   78.0371

 eigenvalue-minimisations  : 21716
 total energy-change (2. order) :-0.9837706E-05  (-0.1055364E-04)
 number of electron     512.0000374 magnetization     130.3550902
 augmentation part      512.0000374 magnetization     130.3550902

 DIPCOR: dipole corrections for dipol
 direction  3 min pos   237,
 dipolmoment           0.000000      0.000000     -0.002583 electrons x Angstroem
 Tr[quadrupol]     -8383.837287

 energy correction for charged system         0.000000 eV
 dipol+quadrupol energy correction           -0.000000 eV
 added-field ion interaction         -0.000968 eV  (added to PSCEN)


 Free energy of the ion-electron system (eV)
  ---------------------------------------------------
  alpha Z        PSCENC =      1444.65355568
  Ewald energy   TEWEN  =    142910.52032421
  -Hartree energ DENC   =   -181133.61054419
  -exchange      EXHF   =         0.00000000
  -V(xc)+E(xc)   XCENC  =       271.43883656
  PAW double counting   =     44436.05249042   -45012.15649472
  entropy T*S    EENTRO =         0.00000000
  eigenvalues    EBANDS =     -1449.02352051
  atomic energy  EATOM  =     38036.01156502
  Solvation  Ediel_sol  =         0.00000000
  ---------------------------------------------------
  free energy    TOTEN  =      -496.11378752 eV

  energy without entropy =     -496.11378752  energy(sigma->0) =     -496.11378752


--------------------------------------------------------------------------------------------------------




--------------------------------------- Iteration      1(  15)  ---------------------------------------


    EDDIAG:  cpu time   18.1049: real time   18.1185
  RMM-DIIS:  cpu time   50.8553: real time   50.8726
    ORTHCH:  cpu time    4.8047: real time    4.8056
 BZINTS: Fermi energy: -0.627768;512.000000 electrons
         Band energy:***********;  BLOECHL correction: -0.015596
       DOS:  cpu time    0.1711: real time    0.1711
    --------------------------------------------
      LOOP:  cpu time   73.9360: real time   73.9678

 eigenvalue-minimisations  : 19427
 total energy-change (2. order) :-0.2142042E-05  (-0.2389262E-05)
 number of electron     512.0000374 magnetization     130.3550902
 augmentation part      512.0000374 magnetization     130.3550902

 DIPCOR: dipole corrections for dipol
 direction  3 min pos   237,
 dipolmoment           0.000000      0.000000     -0.002583 electrons x Angstroem
 Tr[quadrupol]     -8383.837287

 energy correction for charged system         0.000000 eV
 dipol+quadrupol energy correction           -0.000000 eV
 added-field ion interaction         -0.000968 eV  (added to PSCEN)


 Free energy of the ion-electron system (eV)
  ---------------------------------------------------
  alpha Z        PSCENC =      1444.65355568
  Ewald energy   TEWEN  =    142910.52032421
  -Hartree energ DENC   =   -181133.61054419
  -exchange      EXHF   =         0.00000000
  -V(xc)+E(xc)   XCENC  =       271.43883656
  PAW double counting   =     44436.05249042   -45012.15649472
  entropy T*S    EENTRO =         0.00000000
  eigenvalues    EBANDS =     -1449.02352266
  atomic energy  EATOM  =     38036.01156502
  Solvation  Ediel_sol  =         0.00000000
  ---------------------------------------------------
  free energy    TOTEN  =      -496.11378967 eV

  energy without entropy =     -496.11378967  energy(sigma->0) =     -496.11378967


--------------------------------------------------------------------------------------------------------




--------------------------------------- Iteration      1(  16)  ---------------------------------------


    EDDIAG:  cpu time   18.0964: real time   18.1109
  RMM-DIIS:  cpu time   48.1854: real time   48.2010
    ORTHCH:  cpu time    4.8252: real time    4.8260
 BZINTS: Fermi energy: -0.627768;512.000000 electrons
         Band energy:***********;  BLOECHL correction: -0.015596
       DOS:  cpu time    0.1797: real time    0.1798
    --------------------------------------------
      LOOP:  cpu time   71.2867: real time   71.3177

 eigenvalue-minimisations  : 17555
 total energy-change (2. order) :-0.8892093E-06  (-0.9985606E-06)
 number of electron     512.0000374 magnetization     130.3550902
 augmentation part      512.0000374 magnetization     130.3550902

 DIPCOR: dipole corrections for dipol
 direction  3 min pos   237,
 dipolmoment           0.000000      0.000000     -0.002583 electrons x Angstroem
 Tr[quadrupol]     -8383.837287

 energy correction for charged system         0.000000 eV
 dipol+quadrupol energy correction           -0.000000 eV
 added-field ion interaction         -0.000968 eV  (added to PSCEN)


 Free energy of the ion-electron system (eV)
  ---------------------------------------------------
  alpha Z        PSCENC =      1444.65355568
  Ewald energy   TEWEN  =    142910.52032421
  -Hartree energ DENC   =   -181133.61054419
  -exchange      EXHF   =         0.00000000
  -V(xc)+E(xc)   XCENC  =       271.43883656
  PAW double counting   =     44436.05249042   -45012.15649472
  entropy T*S    EENTRO =         0.00000000
  eigenvalues    EBANDS =     -1449.02352354
  atomic energy  EATOM  =     38036.01156502
  Solvation  Ediel_sol  =         0.00000000
  ---------------------------------------------------
  free energy    TOTEN  =      -496.11379056 eV

  energy without entropy =     -496.11379056  energy(sigma->0) =     -496.11379056


--------------------------------------------------------------------------------------------------------




 average (electrostatic) potential at core
  the test charge radii are     1.0103
  (the norm of the test charge is              1.0000)
       1 -49.9041       2 -49.6945       3 -49.7637       4 -49.7010       5 -49.9619
       6 -49.7054       7 -49.7821       8 -49.6914       9 -50.3499      10 -49.7230
      11 -49.8454      12 -49.7005      13 -49.9911      14 -49.6944      15 -49.7546
      16 -49.7029      17 -50.3407      18 -49.7263      19 -49.8433      20 -49.6979
      21 -50.2960      22 -49.7353      23 -49.9469      24 -49.6919      25 -50.1942
      26 -49.7502      27 -49.8323      28 -49.6946      29 -49.7429      30 -49.7209
      31 -49.8807      32 -49.6836      33 -49.8876      34 -49.6923      35 -49.8526
      36 -49.6839      37 -50.0003      38 -49.7021      39 -49.8412      40 -49.7048
      41 -50.3530      42 -49.7215      43 -49.9567      44 -49.6950      45 -49.9576
      46 -49.7019      47 -49.8464      48 -49.6967      49 -49.8076      50 -49.6737
      51 -49.7653      52 -49.7018      53 -49.8238      54 -49.6858      55 -49.8515
      56 -49.6958      57 -49.9814      58 -49.7064      59 -49.7735      60 -49.7048
      61 -49.8069      62 -49.6722      63 -49.7569      64 -49.7023
 
 
 
 E-fermi :  -0.6278     XC(G=0):  -5.8709     alpha+bet : -5.0625


 spin component 1

 k-point     1 :       0.0000    0.0000    0.0000
  band No.  band energies     occupation 
      1      -8.6033      1.00000
      2      -7.3151      1.00000
      3      -6.9322      1.00000
      4      -6.9296      1.00000
      5      -6.9279      1.00000
      6      -6.9223      1.00000
      7      -6.4547      1.00000
      8      -6.4513      1.00000
      9      -5.9148      1.00000
     10      -5.9140      1.00000
     11      -5.9073      1.00000
     12      -5.9023      1.00000
     13      -5.8713      1.00000
     14      -5.5055      1.00000
     15      -5.4636      1.00000
     16      -5.4578      1.00000
     17      -5.3369      1.00000
     18      -5.3294      1.00000
     19      -5.2928      1.00000
     20      -5.2914      1.00000
     21      -5.2790      1.00000
     22      -5.1860      1.00000
     23      -5.1676      1.00000
     24      -5.1094      1.00000
     25      -5.1092      1.00000
     26      -4.8365      1.00000
     27      -4.8311      1.00000
     28      -4.8121      1.00000
     29      -4.7997      1.00000
     30      -4.7465      1.00000
     31      -4.7342      1.00000
     32      -4.7335      1.00000
     33      -4.7288      1.00000
     34      -4.7132      1.00000
     35      -4.7077      1.00000
     36      -4.7044      1.00000
     37      -4.6972      1.00000
     38      -4.6945      1.00000
     39      -4.6805      1.00000
     40      -4.6745      1.00000
     41      -4.6661      1.00000
     42      -4.6561      1.00000
     43      -4.6544      1.00000
     44      -4.6491      1.00000
     45      -4.6485      1.00000
     46      -4.6339      1.00000
     47      -4.6194      1.00000
     48      -4.6100      1.00000
     49      -4.6033      1.00000
     50      -4.5863      1.00000
     51      -4.5820      1.00000
     52      -4.5793      1.00000
     53      -4.5378      1.00000
     54      -4.5346      1.00000
     55      -4.5304      1.00000
     56      -4.5085      1.00000
     57      -4.4659      1.00000
     58      -4.4645      1.00000
     59      -4.4180      1.00000
     60      -4.4108      1.00000
     61      -4.4023      1.00000
     62      -4.3837      1.00000
     63      -4.2131      1.00000
     64      -4.2073      1.00000
     65      -4.1037      1.00000
     66      -4.0946      1.00000
     67      -4.0912      1.00000
     68      -4.0834      1.00000
     69      -4.0234      1.00000
     70      -4.0188      1.00000
     71      -4.0146      1.00000
     72      -4.0109      1.00000
     73      -4.0082      1.00000
     74      -3.9921      1.00000
     75      -3.9851      1.00000
     76      -3.9734      1.00000
     77      -3.9710      1.00000
     78      -3.9564      1.00000
     79      -3.9477      1.00000
     80      -3.9353      1.00000
     81      -3.9347      1.00000
     82      -3.9299      1.00000
     83      -3.9275      1.00000
     84      -3.9198      1.00000
     85      -3.9169      1.00000
     86      -3.9056      1.00000
     87      -3.9030      1.00000
     88      -3.8927      1.00000
     89      -3.8664      1.00000
     90      -3.8577      1.00000
     91      -3.8550      1.00000
     92      -3.8507      1.00000
     93      -3.8257      1.00000
     94      -3.8182      1.00000
     95      -3.7935      1.00000
     96      -3.7804      1.00000
     97      -3.7757      1.00000
     98      -3.7747      1.00000
     99      -3.7542      1.00000
    100      -3.7484      1.00000
    101      -3.7451      1.00000
    102      -3.7334      1.00000
    103      -3.7108      1.00000
    104      -3.7035      1.00000
    105      -3.6846      1.00000
    106      -3.6666      1.00000
    107      -3.6608      1.00000
    108      -3.6255      1.00000
    109      -3.6129      1.00000
    110      -3.5970      1.00000
    111      -3.5516      1.00000
    112      -3.5235      1.00000
    113      -3.4799      1.00000
    114      -3.4637      1.00000
    115      -3.4617      1.00000
    116      -3.4523      1.00000
    117      -3.4383      1.00000
    118      -3.4353      1.00000
    119      -3.4279      1.00000
    120      -3.4247      1.00000
    121      -3.4169      1.00000
    122      -3.4064      1.00000
    123      -3.3801      1.00000
    124      -3.3650      1.00000
    125      -3.3630      1.00000
    126      -3.3409      1.00000
    127      -3.3164      1.00000
    128      -3.2917      1.00000
    129      -3.2898      1.00000
    130      -3.2814      1.00000
    131      -3.2631      1.00000
    132      -3.2612      1.00000
    133      -3.2576      1.00000
    134      -3.2456      1.00000
    135      -3.2366      1.00000
    136      -3.2228      1.00000
    137      -3.2125      1.00000
    138      -3.1862      1.00000
    139      -3.1829      1.00000
    140      -3.1545      1.00000
    141      -3.1489      1.00000
    142      -3.0896      1.00000
    143      -3.0838      1.00000
    144      -3.0734      1.00000
    145      -3.0646      1.00000
    146      -3.0445      1.00000
    147      -3.0427      1.00000
    148      -3.0341      1.00000
    149      -3.0267      1.00000
    150      -3.0148      1.00000
    151      -3.0022      1.00000
    152      -2.9956      1.00000
    153      -2.9826      1.00000
    154      -2.9719      1.00000
    155      -2.9360      1.00000
    156      -2.9250      1.00000
    157      -2.9078      1.00000
    158      -2.9047      1.00000
    159      -2.8926      1.00000
    160      -2.8860      1.00000
    161      -2.8721      1.00000
    162      -2.8669      1.00000
    163      -2.8366      1.00000
    164      -2.8045      1.00000
    165      -2.8037      1.00000
    166      -2.7954      1.00000
    167      -2.7900      1.00000
    168      -2.7838      1.00000
    169      -2.7529      1.00000
    170      -2.7488      1.00000
    171      -2.7381      1.00000
    172      -2.7279      1.00000
    173      -2.7186      1.00000
    174      -2.7130      1.00000
    175      -2.6874      1.00000
    176      -2.6782      1.00000
    177      -2.6675      1.00000
    178      -2.6520      1.00000
    179      -2.6333      1.00000
    180      -2.5995      1.00000
    181      -2.5823      1.00000
    182      -2.5685      1.00000
    183      -2.5263      1.00000
    184      -2.4992      1.00000
    185      -2.4860      1.00000
    186      -2.4461      1.00000
    187      -2.4219      1.00000
    188      -2.3183      1.00000
    189      -2.3048      1.00000
    190      -2.2609      1.00000
    191      -2.2547      1.00000
    192      -2.2468      1.00000
    193      -2.2384      1.00000
    194      -2.2347      1.00000
    195      -2.2279      1.00000
    196      -2.2251      1.00000
    197      -2.2218      1.00000
    198      -2.2100      1.00000
    199      -2.1861      1.00000
    200      -2.1734      1.00000
    201      -2.1567      1.00000
    202      -2.1372      1.00000
    203      -2.1166      1.00000
    204      -2.0907      1.00000
    205      -2.0884      1.00000
    206      -2.0736      1.00000
    207      -2.0718      1.00000
    208      -2.0677      1.00000
    209      -2.0664      1.00000
    210      -2.0495      1.00000
    211      -2.0439      1.00000
    212      -2.0410      1.00000
    213      -2.0243      1.00000
    214      -2.0120      1.00000
    215      -2.0092      1.00000
    216      -1.9819      1.00000
    217      -1.9692      1.00000
    218      -1.9524      1.00000
    219      -1.9315      1.00000
    220      -1.9256      1.00000
    221      -1.9227      1.00000
    222      -1.9041      1.00000
    223      -1.9005      1.00000
    224      -1.8971      1.00000
    225      -1.8885      1.00000
    226      -1.8833      1.00000
    227      -1.8805      1.00000
[...]
   -.140E+01 -.176E+00 -.186E+04   0.120E+01 0.185E+00 0.185E+04   0.684E-01 0.216E-02 0.334E+01   0.140E+00 0.135E-01 0.246E+01
   0.105E+01 0.316E-01 0.185E+04   -.378E+00 0.852E-01 -.184E+04   -.288E+00 0.327E+00 -.200E+01   -.353E+00 -.414E+00 -.130E+01
   0.220E+01 -.978E-01 -.617E+03   -.199E+01 0.235E+00 0.615E+03   0.416E-01 -.196E-01 0.182E+00   -.263E+00 -.104E+00 0.189E+01
   0.799E+00 0.201E+01 0.633E+03   -.588E+00 -.184E+01 -.630E+03   0.704E-01 0.659E-01 -.148E+01   -.159E+00 -.234E+00 -.191E+01
   0.218E+01 0.102E+01 -.186E+04   -.174E+01 -.102E+01 0.185E+04   -.473E-01 -.142E-01 0.336E+01   -.380E+00 0.576E-02 0.254E+01
   0.385E+00 0.273E+00 0.185E+04   0.144E+00 -.451E-01 -.184E+04   0.239E-01 -.104E-01 -.201E+01   -.278E+00 -.229E+00 -.143E+01
   -.345E+00 0.552E+00 -.615E+03   0.512E+00 -.468E+00 0.613E+03   -.476E-02 -.251E-02 0.192E+00   -.168E+00 -.801E-01 0.184E+01
   -.877E+00 0.186E+01 0.632E+03   0.119E+01 -.199E+01 -.630E+03   -.414E-01 0.426E+00 -.103E+01   -.248E+00 -.320E+00 -.159E+01
   -.127E+01 0.485E+00 -.186E+04   0.136E+01 -.472E+00 0.185E+04   -.108E-01 -.117E-02 0.330E+01   -.695E-01 0.267E-01 0.247E+01
   -.872E+00 0.994E-01 0.185E+04   0.373E+00 -.105E+00 -.184E+04   0.131E+00 -.157E+00 -.172E+01   0.199E+00 0.190E+00 -.151E+01
   -.175E+01 0.338E+00 -.619E+03   0.154E+01 -.292E+00 0.617E+03   -.290E-01 0.166E-01 0.122E+00   0.252E+00 -.796E-01 0.182E+01
   -.967E+00 0.151E+01 0.629E+03   0.834E+00 -.188E+01 -.628E+03   -.253E+00 0.293E+00 -.854E+00   0.287E+00 0.128E+00 -.126E+01
   0.127E+01 0.688E+00 -.186E+04   -.156E+01 -.667E+00 0.185E+04   -.373E-01 0.953E-02 0.321E+01   0.328E+00 -.575E-01 0.240E+01
   0.428E+00 0.858E+00 0.185E+04   -.145E+00 0.741E+00 -.184E+04   0.151E+00 -.612E+00 -.328E+01   -.263E+00 -.946E+00 -.136E+01
   0.102E+01 -.360E+01 -.622E+03   -.982E+00 0.381E+01 0.620E+03   -.441E-01 -.562E-01 0.181E+00   0.112E-01 -.144E+00 0.203E+01
   0.155E+01 -.144E+01 0.631E+03   -.167E+01 0.234E+01 -.628E+03   0.256E+00 -.346E+00 -.990E+00   -.192E+00 -.430E+00 -.159E+01
   -.457E+00 -.553E+00 -.186E+04   0.527E+00 0.631E+00 0.185E+04   0.389E-01 -.451E-02 0.325E+01   -.121E+00 -.739E-01 0.249E+01
   -.177E+00 0.370E+00 0.185E+04   -.351E+00 0.853E+00 -.184E+04   0.391E+00 -.824E+00 -.307E+01   0.201E+00 -.482E+00 -.137E+01
   0.167E+01 -.475E+01 -.618E+03   -.151E+01 0.469E+01 0.615E+03   0.584E-03 -.107E-01 0.272E+00   -.157E+00 0.768E-01 0.197E+01
   0.182E+00 -.137E+01 0.633E+03   -.353E+00 0.191E+01 -.631E+03   0.234E+00 -.349E+00 -.109E+01   -.135E+00 -.109E+00 -.150E+01
   0.690E+00 -.558E+00 -.186E+04   -.382E+00 0.522E+00 0.185E+04   -.430E-02 0.175E-01 0.333E+01   -.270E+00 -.120E-01 0.253E+01
   -.296E+00 -.167E+01 0.185E+04   0.153E+00 0.668E+00 -.184E+04   -.701E-02 0.502E+00 -.146E+01   0.153E+00 0.177E+00 -.154E+01
   -.179E+00 -.270E+01 -.618E+03   0.300E+00 0.265E+01 0.616E+03   -.438E-01 -.762E-01 0.284E+00   -.840E-01 0.129E+00 0.185E+01
   -.126E+01 -.158E+01 0.632E+03   0.138E+01 0.126E+01 -.629E+03   -.610E-01 -.390E-01 -.131E+01   0.597E-02 0.135E+00 -.157E+01
   -.927E+00 0.204E+00 -.186E+04   0.778E+00 -.336E+00 0.185E+04   0.208E-01 0.238E-01 0.335E+01   0.956E-01 0.889E-01 0.255E+01
   0.606E-01 -.295E+00 0.185E+04   0.342E+00 0.558E+00 -.184E+04   -.145E+00 -.127E-02 -.289E+01   -.106E+00 -.263E+00 -.148E+01
   -.192E+01 -.252E+01 -.620E+03   0.180E+01 0.260E+01 0.618E+03   -.122E+00 -.790E-01 0.212E+00   0.221E+00 -.956E-02 0.199E+01
   -.808E+00 -.626E+00 0.630E+03   0.585E+00 0.149E+01 -.628E+03   -.102E+00 -.387E+00 -.989E+00   0.311E+00 -.316E+00 -.162E+01
   0.803E-01 -.822E+00 -.186E+04   -.341E+00 0.863E+00 0.185E+04   -.362E-01 -.794E-02 0.335E+01   0.283E+00 -.317E-01 0.248E+01
   0.246E+00 0.303E-01 0.185E+04   -.915E-01 0.470E-01 -.184E+04   0.346E-01 0.400E-02 -.316E+01   -.159E+00 -.855E-01 -.117E+01
   0.543E+00 -.946E-02 -.625E+03   -.626E+00 -.138E-01 0.623E+03   0.132E-01 -.610E-02 0.258E+00   0.647E-01 0.189E-01 0.201E+01
   0.146E+01 -.271E+01 0.626E+03   -.153E+01 0.286E+01 -.625E+03   0.700E-01 -.155E+00 -.445E+00   0.599E-01 -.110E+00 -.100E+01
   -.763E-01 0.698E+00 -.186E+04   0.121E+00 -.448E+00 0.185E+04   0.318E-01 -.264E-01 0.326E+01   -.853E-01 -.181E+00 0.241E+01
   -.567E+00 0.151E+00 0.185E+04   -.335E+00 0.173E+00 -.184E+04   0.244E+00 -.241E+00 -.344E+01   0.658E+00 -.218E-01 -.134E+01
   0.195E+01 -.673E+00 -.623E+03   -.195E+01 0.567E+00 0.621E+03   0.368E-01 -.388E-02 0.193E+00   -.441E-01 0.124E+00 0.195E+01
   0.260E+00 -.215E+01 0.629E+03   -.604E+00 0.251E+01 -.627E+03   0.123E+00 -.310E+00 -.849E+00   0.109E+00 -.494E-01 -.148E+01
   0.162E+01 -.144E+01 -.186E+04   -.160E+01 0.128E+01 0.185E+04   -.538E-01 -.506E-01 0.331E+01   0.153E-01 0.218E+00 0.247E+01
   -.957E-01 -.207E+00 0.185E+04   0.914E-01 -.314E-01 -.184E+04   -.160E-01 0.195E-01 -.308E+01   0.308E-01 0.199E+00 -.146E+01
   -.757E+00 0.502E-01 -.622E+03   0.833E+00 -.161E+00 0.620E+03   -.787E-02 -.104E-01 0.272E+00   -.625E-01 0.120E+00 0.201E+01
   -.934E+00 -.168E+01 0.628E+03   0.109E+01 0.167E+01 -.626E+03   -.317E-01 -.105E+00 -.551E+00   -.133E+00 0.102E+00 -.155E+01
   -.200E+01 -.937E+00 -.186E+04   0.196E+01 0.869E+00 0.185E+04   0.129E-01 -.591E-01 0.326E+01   0.267E-01 0.121E+00 0.256E+01
   0.391E+00 -.470E+00 0.185E+04   0.336E+00 -.152E+00 -.184E+04   -.196E+00 0.110E+00 -.337E+01   -.542E+00 0.395E+00 -.129E+01
   -.183E+01 0.444E+00 -.624E+03   0.181E+01 -.439E+00 0.622E+03   -.298E-01 -.193E-01 0.201E+00   0.572E-01 -.129E-02 0.189E+01
   -.659E+00 -.156E+01 0.625E+03   0.723E+00 0.170E+01 -.624E+03   -.597E-01 -.664E-01 -.440E+00   -.296E-01 -.125E+00 -.115E+01
   0.259E+00 -.375E+00 -.186E+04   -.237E+00 0.575E+00 0.185E+04   -.670E-01 -.303E-01 0.339E+01   0.307E-01 -.168E+00 0.244E+01
 -----------------------------------------------------------------------------------------------
   -.376E-01 -.764E-01 -.266E+02   -.208E-12 0.756E-13 -.909E-12   0.808E-01 -.196E-02 0.129E+01   -.413E-01 0.733E-01 0.250E+02
 
 
 POSITION                                       TOTAL-FORCE (eV/Angst)
 -----------------------------------------------------------------------------------
      1.40594      1.52230      2.00000        -0.154126     -0.106290      0.385297
      1.40225      1.52459      6.00927         0.010047     -0.001170     -0.005014
      2.23340      0.35210      4.02685         0.025803      0.051585     -0.457440
      2.22538      0.34770      7.97191        -0.006948     -0.016896     -0.028157
      3.88832      1.52230      2.00000        -0.207854     -0.107176      0.492660
      3.88524      1.52577      6.00167         0.027366      0.009557     -0.034520
      4.71578      0.35210      4.02685        -0.035200      0.031081     -0.512001
      4.70905      0.35249      7.95767         0.033428     -0.019430     -0.015767
      6.37069      1.52230      2.00000        -0.005967      0.239257      0.478396
      6.36734      1.52668      5.99608         0.002493     -0.011452     -0.004170
      7.19815      0.35210      4.02685         0.098994      0.008338     -0.323607
      7.19106      0.36326      7.97140         0.013253      0.001088     -0.017973
      8.85307      1.52230      2.00000         0.077744      0.353441      0.373987
      8.84982      1.53006      5.99853        -0.000433     -0.004584     -0.015615
      9.68053      0.35210      4.02685        -0.039742      0.082312     -0.436532
      9.67541      0.35702      7.96886         0.020453     -0.013707     -0.004467
      2.23340      3.86271      2.00000        -0.250326      0.011019      0.393176
      2.23470      3.85953      5.99716        -0.007351      0.011089     -0.021740
      3.06086      2.69251      4.02685         0.050173     -0.138062     -0.435599
      3.05760      2.68538      7.96942         0.003215      0.024648     -0.017584
      4.71578      3.86271      2.00000         0.034605      0.030124      0.486184
      4.71925      3.85809      5.99117        -0.012895      0.013110     -0.017255
      5.54324      2.69251      4.02685         0.122900      0.004473     -0.412420
      5.54717      2.69611      7.96574         0.008406     -0.011535     -0.018943
      7.19815      3.86271      2.00000         0.274327     -0.011072      0.129731
      7.19919      3.86559      5.98868        -0.005706      0.001125     -0.026632
      8.02561      2.69251      4.02685         0.023972     -0.026663     -0.247109
      8.02342      2.69856      7.96181         0.005413      0.039113     -0.020472
      9.68053      3.86271      2.00000        -0.169824      0.027781      1.182281
      9.67903      3.86700      5.99844         0.010358     -0.017427     -0.014883
     10.50799      2.69251      4.02685        -0.098778      0.056605     -0.577408
     10.50972      2.69940      7.95947         0.000489     -0.026351     -0.016132
      3.06086      6.20312      2.00000         0.170476      0.041730      0.434683
      3.06458      6.19705      6.00800         0.000459      0.009863     -0.029666
      3.88832      5.03291      4.02685        -0.050802      0.119223     -0.328842
      3.88861      5.02255      7.96276        -0.011256     -0.000350     -0.031029
      5.54324      6.20312      2.00000         0.064241     -0.082273      0.408001
      5.54688      6.19243      5.99633        -0.004107      0.009754     -0.015377
      6.37069      5.03291      4.02685        -0.071794      0.083026     -0.263019
      6.37174      5.03066      7.96395         0.033524     -0.030830     -0.023749
      8.02561      6.20312      2.00000         0.002758     -0.324596      0.483921
      8.02846      6.20277      5.99714        -0.007169      0.002900     -0.011695
      8.85307      5.03291      4.02685         0.060194     -0.218237     -0.617713
      8.85424      5.03583      7.96418        -0.032969     -0.018967     -0.008695
     10.50799      6.20312      2.00000         0.151746     -0.001873      0.414198
     10.51125      6.20116      6.00200        -0.025912     -0.005789     -0.021213
     11.33544      5.03291      4.02685        -0.014112      0.163989     -0.401687
     11.34009      5.03302      7.96722        -0.014598      0.001096     -0.016535
      3.88832      8.54352      2.00000         0.030447     -0.004128      0.405994
      3.88733      8.54248      6.01747        -0.005525     -0.010415     -0.010087
      4.71578      7.37332      4.02685         0.055458     -0.115413     -0.471994
      4.72104      7.36568      7.96349        -0.008105      0.042225     -0.002590
      6.37069      8.54352      2.00000         0.000048      0.061598      0.386177
      6.37172      8.53979      6.00981        -0.001188      0.013368     -0.024767
      7.19815      7.37332      4.02685        -0.112799     -0.005510     -0.301251
      7.20688      7.36547      7.97007        -0.021400      0.006949     -0.003068
      8.85307      8.54352      2.00000         0.010536     -0.019696      0.465994
      8.85253      8.54541      6.00940         0.005949     -0.000303     -0.029093
      9.68053      7.37332      4.02685        -0.011855     -0.011328     -0.485463
      9.68276      7.37412      7.96337         0.003344     -0.006656     -0.025379
     11.33544      8.54352      2.00000        -0.011128     -0.116240      0.399833
     11.33277      8.54636      6.01281         0.007284     -0.016138     -0.009979
     12.16290      7.37332      4.02685        -0.025884     -0.051524     -0.476901
     12.16721      7.37371      7.97212        -0.014153      0.000616     -0.029280
 -----------------------------------------------------------------------------------
    total drift:                                0.001903     -0.005099     -0.266032


--------------------------------------------------------------------------------------------------------



  FREE ENERGIE OF THE ION-ELECTRON SYSTEM (eV)
  ---------------------------------------------------
  free  energy   TOTEN  =      -509.01205653 eV

  energy  without entropy=     -509.01205653  energy(sigma->0) =     -509.01205653
 


--------------------------------------------------------------------------------------------------------


    POTLOK:  cpu time    0.5618: real time    0.5822


--------------------------------------------------------------------------------------------------------


 stress matrix after NEB project (eV)
    -36.55858      5.77290      0.03945
      5.77290    -38.09352     -0.12597
      0.03945     -0.12597     -1.79287
  FORCES: max atom, RMS     0.051365    0.021114
  FORCE total and by dimension    0.168915    0.042225
  Stress total and by dimension   53.456039   38.093518
     LOOP+:  cpu time 1881.2931: real time 1883.0719
    4ORBIT:  cpu time    0.0000: real time    0.0000
 


 total charge     
 
# of ion       s       p       d       tot
------------------------------------------
    1        0.468   0.382   6.188   7.038
    2        0.481   0.523   6.270   7.274
    3        0.473   0.512   6.240   7.225
    4        0.470   0.384   6.206   7.059
    5        0.473   0.388   6.166   7.027
    6        0.481   0.524   6.274   7.278
    7        0.476   0.514   6.246   7.236
    8        0.471   0.387   6.198   7.055
    9        0.475   0.406   6.092   6.973
   10        0.482   0.525   6.274   7.281
   11        0.477   0.514   6.233   7.224
   12        0.470   0.384   6.206   7.059
   13        0.472   0.389   6.153   7.014
   14        0.481   0.523   6.272   7.276
   15        0.473   0.512   6.240   7.226
   16        0.471   0.385   6.198   7.053
   17        0.474   0.404   6.086   6.964
   18        0.481   0.526   6.266   7.273
   19        0.478   0.516   6.245   7.239
   20        0.471   0.384   6.196   7.050
   21        0.472   0.401   6.123   6.996
   22        0.482   0.526   6.273   7.281
   23        0.482   0.519   6.238   7.239
   24        0.470   0.384   6.201   7.055
   25        0.471   0.400   6.133   7.004
   26        0.482   0.528   6.269   7.279
   27        0.478   0.514   6.255   7.246
   28        0.471   0.386   6.206   7.063
   29        0.455   0.368   6.264   7.087
   30        0.481   0.526   6.275   7.283
   31        0.478   0.515   6.227   7.220
   32        0.470   0.387   6.206   7.064
   33        0.470   0.381   6.176   7.028
   34        0.481   0.523   6.270   7.274
   35        0.478   0.515   6.247   7.240
   36        0.470   0.385   6.200   7.055
   37        0.472   0.390   6.172   7.034
   38        0.481   0.524   6.273   7.279
   39        0.479   0.516   6.257   7.253
   40        0.471   0.385   6.204   7.061
   41        0.474   0.406   6.091   6.972
   42        0.482   0.525   6.274   7.281
   43        0.482   0.518   6.231   7.232
   44        0.470   0.386   6.209   7.064
   45        0.474   0.385   6.164   7.022
   46        0.481   0.523   6.274   7.277
   47        0.476   0.514   6.244   7.234
   48        0.471   0.384   6.202   7.057
   49        0.464   0.381   6.191   7.036
   50        0.480   0.522   6.272   7.274
   51        0.474   0.512   6.237   7.223
   52        0.471   0.385   6.201   7.057
   53        0.467   0.377   6.193   7.038
   54        0.480   0.521   6.265   7.267
   55        0.477   0.515   6.238   7.230
   56        0.471   0.384   6.204   7.058
   57        0.470   0.386   6.163   7.018
   58        0.481   0.525   6.276   7.282
   59        0.476   0.514   6.251   7.240
   60        0.471   0.386   6.198   7.055
   61        0.468   0.376   6.194   7.038
   62        0.480   0.520   6.269   7.269
   63        0.473   0.511   6.242   7.226
   64        0.469   0.384   6.201   7.053
--------------------------------------------------
tot         30.374  28.993 398.003 457.370
 


 magnetization (x)
 
# of ion       s       p       d       tot
------------------------------------------
    1        0.012  -0.006   2.607   2.613
    2       -0.015  -0.053   2.438   2.370
    3       -0.013  -0.051   2.463   2.399
    4       -0.006  -0.012   2.681   2.664
    5        0.018   0.018   2.495   2.530
    6       -0.015  -0.053   2.432   2.364
    7       -0.013  -0.045   2.436   2.378
    8       -0.005  -0.013   2.675   2.657
    9       -0.048  -0.047  -2.468  -2.563
   10       -0.014  -0.053   2.455   2.388
   11       -0.008  -0.039   2.365   2.318
   12       -0.005  -0.012   2.680   2.663
   13        0.013   0.007   2.573   2.594
   14       -0.015  -0.054   2.438   2.369
   15       -0.014  -0.050   2.490   2.425
   16       -0.004  -0.013   2.690   2.674
   17       -0.045  -0.051  -2.522  -2.619
   18       -0.015  -0.050   2.479   2.414
   19       -0.007  -0.033   2.284   2.244
   20       -0.004  -0.012   2.678   2.662
   21       -0.037  -0.029  -2.500  -2.566
   22       -0.014  -0.051   2.449   2.383
   23       -0.000  -0.017   2.139   2.122
   24       -0.006  -0.013   2.662   2.644
   25       -0.029  -0.021  -2.620  -2.669
   26       -0.015  -0.048   2.462   2.399
   27       -0.006  -0.024   2.303   2.273
   28       -0.005  -0.013   2.653   2.635
   29       -0.013  -0.005  -0.473  -0.491
   30       -0.015  -0.052   2.444   2.377
   31       -0.008  -0.034   2.436   2.394
   32       -0.006  -0.013   2.654   2.635
   33        0.013  -0.002   2.592   2.603
   34       -0.015  -0.054   2.456   2.387
   35       -0.006  -0.032   2.286   2.248
   36       -0.006  -0.012   2.668   2.650
   37        0.017   0.013   2.508   2.539
   38       -0.015  -0.054   2.427   2.359
   39       -0.006  -0.024   2.259   2.229
   40       -0.005  -0.012   2.662   2.645
   41       -0.050  -0.050  -2.459  -2.559
   42       -0.015  -0.052   2.442   2.375
   43       -0.002  -0.020   2.292   2.270
   44       -0.006  -0.013   2.650   2.631
   45        0.014   0.015   2.598   2.627
   46       -0.015  -0.054   2.434   2.364
   47       -0.007  -0.033   2.325   2.286
   48       -0.004  -0.013   2.671   2.654
   49       -0.002  -0.024   2.681   2.655
   50       -0.016  -0.054   2.454   2.385
   51       -0.013  -0.050   2.487   2.424
   52       -0.004  -0.013   2.686   2.670
   53        0.004  -0.008   2.673   2.669
   54       -0.015  -0.055   2.475   2.406
   55       -0.008  -0.039   2.341   2.294
   56       -0.005  -0.011   2.675   2.659
   57        0.017  -0.000   2.580   2.597
   58       -0.016  -0.051   2.425   2.358
   59       -0.013  -0.045   2.438   2.380
   60       -0.005  -0.013   2.685   2.668
   61        0.003  -0.006   2.664   2.662
   62       -0.015  -0.055   2.474   2.404
   63       -0.013  -0.051   2.477   2.413
   64       -0.005  -0.013   2.694   2.676
--------------------------------------------------
tot         -0.571  -1.820 132.697 130.305
 
 BZINTS: Fermi energy: -0.627768;512.000000 electrons
         Band energy:***********;  BLOECHL correction: -0.015596

 total amount of memory used by VASP MPI-rank0   228920. kBytes
=======================================================================

   base      :      30000. kBytes
   nonlr-proj:      12751. kBytes
   fftplans  :       6402. kBytes
   grid      :      15219. kBytes
   one-center:         93. kBytes
   wavefun   :     164455. kBytes
 
  
  
 General timing and accounting informations for this job:
 ========================================================
  
                  Total CPU time used (sec):     1992.274
                            User time (sec):     1900.796
                          System time (sec):       91.478
                         Elapsed time (sec):     1999.220
  
                   Maximum memory used (kb):      463548.
                   Average memory used (kb):           0.
  
                          Minor page faults:     23834997
                          Major page faults:           16
                 Voluntary context switches:         3671
