SQS-NiFe                                
           1
     9.929501    0.000000    0.000000
     3.309834    9.361623    0.000000
     0.000000    0.000000   21.080553
   Fe
  64
Direct configuration=     1
   0.08738889  0.16261111  0.09487417
   0.08693547  0.16285521  0.28506222
   0.21238889  0.03761111  0.19102207
   0.21173785  0.03714089  0.37816417
   0.33738889  0.16261111  0.09487417
   0.33695548  0.16298144  0.28470175
   0.46238889  0.03761111  0.19102207
   0.46169774  0.03765292  0.37748849
   0.58738889  0.16261111  0.09487417
   0.58689509  0.16307853  0.28443650
   0.71238889  0.03761111  0.19102207
   0.71127676  0.03880340  0.37814007
   0.83738889  0.16261111  0.09487417
   0.83678558  0.16344001  0.28455300
   0.96238889  0.03761111  0.19102207
   0.96169823  0.03813613  0.37801946
   0.08738889  0.41261111  0.09487417
   0.08763235  0.41227142  0.28448798
   0.21238889  0.28761111  0.19102207
   0.21231440  0.28684981  0.37804628
   0.33738889  0.41261111  0.09487417
   0.33790352  0.41211771  0.28420386
   0.46238889  0.28761111  0.19102207
   0.46265700  0.28799620  0.37787159
   0.58738889  0.41261111  0.09487417
   0.58739071  0.41291867  0.28408573
   0.71238889  0.28761111  0.19102207
   0.71195208  0.28825815  0.37768494
   0.83738889  0.41261111  0.09487417
   0.83708503  0.41306977  0.28454866
   0.96238889  0.28761111  0.19102207
   0.96231785  0.28834777  0.37757403
   0.08738889  0.66261111  0.09487417
   0.08797976  0.66196332  0.28500208
   0.21238889  0.53761111  0.19102207
   0.21278741  0.53650469  0.37772990
   0.33738889  0.66261111  0.09487417
   0.33813654  0.66146990  0.28444857
   0.46238889  0.53761111  0.19102207
   0.46257440  0.53737056  0.37778664
   0.58738889  0.66261111  0.09487417
   0.58768867  0.66257393  0.28448673
   0.71238889  0.53761111  0.19102207
   0.71240301  0.53792326  0.37779728
   0.83738889  0.66261111  0.09487417
   0.83778731  0.66240254  0.28471760
   0.96238889  0.53761111  0.19102207
   0.96285256  0.53762301  0.37794163
   0.08738889  0.91261111  0.09487417
   0.08732620  0.91249956  0.28545119
   0.21238889  0.78761111  0.19102207
   0.21319099  0.78679529  0.37776485
   0.33738889  0.91261111  0.09487417
   0.33762544  0.91221244  0.28508784
   0.46238889  0.78761111  0.19102207
   0.46354669  0.78677326  0.37807694
   0.58738889  0.91261111  0.09487417
   0.58726713  0.91281334  0.28506841
   0.71238889  0.78761111  0.19102207
   0.71258552  0.78769661  0.37775893
   0.83738889  0.91261111  0.09487417
   0.83701822  0.91291445  0.28523021
   0.96238889  0.78761111  0.19102207
   0.96280903  0.78765289  0.37817419
