       N       E                     dE             d eps       ncg     rms          rms(c)
DAV:   1     0.455914056273E+04    0.45591E+04   -0.22657E+05 28560   0.154E+03
DAV:   2    -0.104637989561E+02   -0.45696E+04   -0.43253E+04 28569   0.371E+02
DAV:   3    -0.452398670764E+03   -0.44193E+03   -0.39227E+03 33729   0.144E+02
DAV:   4    -0.525316769642E+03   -0.72918E+02   -0.68279E+02 54330   0.470E+01
DAV:   5    -0.531296850590E+03   -0.59801E+01   -0.56610E+01 47004   0.125E+01
RMM:   6    -0.531587657268E+03   -0.29081E+00   -0.28867E+00 30856   0.248E+00
RMM:   7    -0.531719395011E+03   -0.13174E+00   -0.13000E+00 47727   0.657E-01
RMM:   8    -0.531761355903E+03   -0.41961E-01   -0.45323E-01 54253   0.247E-01
RMM:   9    -0.531784657559E+03   -0.23302E-01   -0.23422E-01 54721   0.132E-01
RMM:  10    -0.531799339742E+03   -0.14682E-01   -0.14729E-01 49150   0.832E-02
RMM:  11    -0.531808881680E+03   -0.95419E-02   -0.95527E-02 43880   0.559E-02
RMM:  12    -0.531815342338E+03   -0.64607E-02   -0.64069E-02 38260   0.403E-02
RMM:  13    -0.531819719206E+03   -0.43769E-02   -0.43139E-02 34956   0.301E-02
RMM:  14    -0.531822458737E+03   -0.27395E-02   -0.27615E-02 33102   0.229E-02
RMM:  15    -0.531824436199E+03   -0.19775E-02   -0.19076E-02 31152   0.178E-02
RMM:  16    -0.531825832092E+03   -0.13959E-02   -0.13067E-02 28830   0.139E-02
RMM:  17    -0.531826854956E+03   -0.10229E-02   -0.91286E-03 26371   0.110E-02
RMM:  18    -0.531827645034E+03   -0.79008E-03   -0.62688E-03 24164   0.881E-03
RMM:  19    -0.531828263205E+03   -0.61817E-03   -0.43294E-03 22414   0.714E-03
RMM:  20    -0.531828565954E+03   -0.30275E-03   -0.29676E-03 20576   0.583E-03
RMM:  21    -0.531828781346E+03   -0.21539E-03   -0.20979E-03 19076   0.482E-03
RMM:  22    -0.531828937721E+03   -0.15637E-03   -0.15124E-03 17749   0.401E-03
RMM:  23    -0.531829053423E+03   -0.11570E-03   -0.11134E-03 16733   0.338E-03
RMM:  24    -0.531829139547E+03   -0.86124E-04   -0.82628E-04 15539   0.287E-03
RMM:  25    -0.531829204543E+03   -0.64996E-04   -0.62102E-04 14785   0.246E-03
RMM:  26    -0.531829253482E+03   -0.48939E-04   -0.46656E-04 14156   0.212E-03
RMM:  27    -0.531829290490E+03   -0.37008E-04   -0.35252E-04 13577   0.184E-03
RMM:  28    -0.531829318737E+03   -0.28247E-04   -0.26827E-04 13050   0.162E-03
RMM:  29    -0.531829340544E+03   -0.21806E-04   -0.20644E-04 12576   0.143E-03
RMM:  30    -0.531829357471E+03   -0.16927E-04   -0.15985E-04 12091   0.127E-03
RMM:  31    -0.531829370882E+03   -0.13411E-04   -0.12616E-04 11566   0.114E-03
RMM:  32    -0.531829381404E+03   -0.10522E-04   -0.98843E-05 11141   0.103E-03
RMM:  33    -0.531829389786E+03   -0.83821E-05   -0.78423E-05 10709   0.940E-04
RMM:  34    -0.531829396496E+03   -0.67095E-05   -0.62593E-05 10287   0.864E-04
RMM:  35    -0.531829401903E+03   -0.54076E-05   -0.50229E-05  9853   0.800E-04
RMM:  36    -0.531829406282E+03   -0.43786E-05   -0.40488E-05  9433   0.747E-04
RMM:  37    -0.531829409837E+03   -0.35556E-05   -0.32674E-05  9046   0.701E-04
RMM:  38    -0.531829412746E+03   -0.29086E-05   -0.26556E-05  8684   0.661E-04
RMM:  39    -0.531829415105E+03   -0.23588E-05   -0.21335E-05  8284   0.626E-04
RMM:  40    -0.531829417032E+03   -0.19272E-05   -0.17236E-05  7956   0.597E-04
RMM:  41    -0.531829418593E+03   -0.15614E-05   -0.13755E-05  7639   0.571E-04
RMM:  42    -0.531829419861E+03   -0.12676E-05   -0.10960E-05  7365   0.549E-04
RMM:  43    -0.531829420875E+03   -0.10144E-05   -0.85424E-06  7114   0.530E-04
RMM:  44    -0.531829421688E+03   -0.81264E-06   -0.66160E-06  6867   0.513E-04
   1 F= -.54506435E+03 E0= -.54506435E+03  d E =0.000000E+00  mag=   159.2075
