 vasp.5.4.4.18Apr17-6-g9f103f2a35 (build Dec 15 2018 21:27:11) complex          
  
 executed on             LinuxIFC date 2022.03.01  23:04:12
 running on   72 total cores
 distrk:  each k-point on   72 cores,    1 groups
 distr:  one band on NCORES_PER_BAND=  24 cores,    3 groups


--------------------------------------------------------------------------------------------------------


 INCAR:
 POTCAR:    PAW_PBE Fe 06Sep2000                  
 POTCAR:    PAW_PBE O 08Apr2002                   

 ----------------------------------------------------------------------------- 
|                                                                             |
|           W    W    AA    RRRRR   N    N  II  N    N   GGGG   !!!           |
|           W    W   A  A   R    R  NN   N  II  NN   N  G    G  !!!           |
|           W    W  A    A  R    R  N N  N  II  N N  N  G       !!!           |
|           W WW W  AAAAAA  RRRRR   N  N N  II  N  N N  G  GGG   !            |
|           WW  WW  A    A  R   R   N   NN  II  N   NN  G    G                |
|           W    W  A    A  R    R  N    N  II  N    N   GGGG   !!!           |
|                                                                             |
|      For optimal performance we recommend to set                            |
|        NCORE= 4 - approx SQRT( number of cores)                             |
|      NCORE specifies how many cores store one orbital (NPAR=cpu/NCORE).     |
|      This setting can  greatly improve the performance of VASP for DFT.     |
|      The default,   NCORE=1            might be grossly inefficient         |
|      on modern multi-core architectures or massively parallel machines.     |
|      Do your own testing !!!!                                               |
|      Unfortunately you need to use the default for GW and RPA calculations. |
|      (for HF NCORE is supported but not extensively tested yet)             |
|                                                                             |
 ----------------------------------------------------------------------------- 

 POTCAR:    PAW_PBE Fe 06Sep2000                  
   VRHFIN =Fe:  d7 s1                                                           
   LEXCH  = PE                                                                  
   EATOM  =   594.3153 eV,   43.6809 Ry                                         
                                                                                
   TITEL  = PAW_PBE Fe 06Sep2000                                                
   LULTRA =        F    use ultrasoft PP ?                                      
   IUNSCR =        1    unscreen: 0-lin 1-nonlin 2-no                           
   RPACOR =    2.000    partial core radius                                     
   POMASS =   55.847; ZVAL   =    8.000    mass and valenz                      
   RCORE  =    2.300    outmost cutoff radius                                   
   RWIGS  =    2.460; RWIGS  =    1.302    wigner-seitz radius (au A)           
   ENMAX  =  267.882; ENMIN  =  200.911 eV                                      
   RCLOC  =    1.701    cutoff for local pot                                    
   LCOR   =        T    correct aug charges                                     
   LPAW   =        T    paw PP                                                  
   EAUG   =  511.368                                                            
   DEXC   =    0.000                                                            
   RMAX   =    2.356    core radius for proj-oper                               
   RAUG   =    1.300    factor for augmentation sphere                          
   RDEP   =    2.442    radius for radial grids                                 
   RDEPT  =    1.890    core radius for aug-charge                              
                                                                                
   Atomic configuration                                                         
    9 entries                                                                   
     n  l   j            E        occ.                                          
     1  0  0.50     -6993.8440   2.0000                                         
     2  0  0.50      -814.6047   2.0000                                         
     2  1  1.50      -693.3689   6.0000                                         
     3  0  0.50       -89.4732   2.0000                                         
     3  1  1.50       -55.6373   6.0000                                         
     3  2  2.50        -3.8151   7.0000                                         
     4  0  0.50        -4.2551   1.0000                                         
     4  1  1.50        -3.4015   0.0000                                         
     4  3  2.50        -1.3606   0.0000                                         
   Description                                                                  
     l       E           TYP  RCUT    TYP  RCUT                                 
     2     -3.8151135     23  2.300                                             
     2     -5.1756961     23  2.300                                             
     0     -4.2550963     23  2.300                                             
     0      7.2035603     23  2.300                                             
     1     -2.7211652     23  2.300                                             
     1     18.4316424     23  2.300                                             
  local pseudopotential read in
  partial core-charges read in
  partial kinetic energy density read in
  atomic valenz-charges read in
  non local Contribution for L=           2  read in
    real space projection operators read in
  non local Contribution for L=           2  read in
    real space projection operators read in
  non local Contribution for L=           0  read in
    real space projection operators read in
  non local Contribution for L=           0  read in
    real space projection operators read in
  non local Contribution for L=           1  read in
    real space projection operators read in
  non local Contribution for L=           1  read in
    real space projection operators read in
    PAW grid and wavefunctions read in
 
   number of l-projection  operators is LMAX  =           6
   number of lm-projection operators is LMMAX =          18
 
 POTCAR:    PAW_PBE O 08Apr2002                   
   VRHFIN =O: s2p4                                                              
   LEXCH  = PE                                                                  
   EATOM  =   432.3788 eV,   31.7789 Ry                                         
                                                                                
   TITEL  = PAW_PBE O 08Apr2002                                                 
   LULTRA =        F    use ultrasoft PP ?                                      
   IUNSCR =        1    unscreen: 0-lin 1-nonlin 2-no                           
   RPACOR =    1.200    partial core radius                                     
   POMASS =   16.000; ZVAL   =    6.000    mass and valenz                      
   RCORE  =    1.520    outmost cutoff radius                                   
   RWIGS  =    1.550; RWIGS  =    0.820    wigner-seitz radius (au A)           
   ENMAX  =  400.000; ENMIN  =  300.000 eV                                      
   ICORE  =        2    local potential                                         
   LCOR   =        T    correct aug charges                                     
   LPAW   =        T    paw PP                                                  
   EAUG   =  605.392                                                            
   DEXC   =    0.000                                                            
   RMAX   =    1.553    core radius for proj-oper                               
   RAUG   =    1.300    factor for augmentation sphere                          
   RDEP   =    1.550    radius for radial grids                                 
   RDEPT  =    1.329    core radius for aug-charge                              
                                                                                
   Atomic configuration                                                         
    4 entries                                                                   
     n  l   j            E        occ.                                          
     1  0  0.50      -514.6923   2.0000                                         
     2  0  0.50       -23.9615   2.0000                                         
     2  1  0.50        -9.0305   4.0000                                         
     3  2  1.50        -9.5241   0.0000                                         
   Description                                                                  
     l       E           TYP  RCUT    TYP  RCUT                                 
     0    -23.9615318     23  1.200                                             
     0     -9.5240782     23  1.200                                             
     1     -9.0304911     23  1.520                                             
     1      8.1634956     23  1.520                                             
     2     -9.5240782      7  1.500                                             
  local pseudopotential read in
  partial core-charges read in
  partial kinetic energy density read in
  kinetic energy density of atom read in
  atomic valenz-charges read in
  non local Contribution for L=           0  read in
    real space projection operators read in
  non local Contribution for L=           0  read in
    real space projection operators read in
  non local Contribution for L=           1  read in
    real space projection operators read in
  non local Contribution for L=           1  read in
    real space projection operators read in
    PAW grid and wavefunctions read in
 
   number of l-projection  operators is LMAX  =           4
   number of lm-projection operators is LMMAX =           8
 
 Optimization of the real space projectors (new method)

 maximal supplied QI-value         = 16.25
 optimisation between [QCUT,QGAM] = [ 11.54, 23.24] = [ 37.28,151.24] Ry 
 Optimized for a Real-space Cutoff    1.53 Angstroem

   l    n(q)    QCUT    max X(q) W(low)/X(q) W(high)/X(q)  e(spline) 
   2     10    11.539    80.901    0.11E-03    0.14E-03    0.21E-06
   2     10    11.539    75.754    0.11E-03    0.14E-03    0.22E-06
   0     11    11.539    58.752    0.52E-04    0.18E-04    0.33E-06
   0     11    11.539    30.679    0.44E-04    0.16E-04    0.30E-06
   1     10    11.539    17.977    0.53E-04    0.29E-04    0.13E-06
   1     10    11.539    13.559    0.44E-04    0.25E-04    0.11E-06
 Optimization of the real space projectors (new method)

 maximal supplied QI-value         = 24.76
 optimisation between [QCUT,QGAM] = [ 11.64, 23.27] = [ 37.91,151.63] Ry 
 Optimized for a Real-space Cutoff    1.14 Angstroem

   l    n(q)    QCUT    max X(q) W(low)/X(q) W(high)/X(q)  e(spline) 
   0      8    11.635    20.381    0.10E-03    0.33E-03    0.24E-06
   0      8    11.635    15.268    0.11E-03    0.35E-03    0.26E-06
   1      7    11.635     5.964    0.24E-03    0.31E-03    0.30E-06
   1      7    11.635     5.382    0.22E-03    0.25E-03    0.26E-06
  PAW_PBE Fe 06Sep2000                  :
 energy of atom  1       EATOM= -594.3153
 kinetic energy error for atom=    0.0026 (will be added to EATOM!!)
  PAW_PBE O 08Apr2002                   :
 energy of atom  2       EATOM= -432.3788
 kinetic energy error for atom=    0.0208 (will be added to EATOM!!)
 
 
 POSCAR: POSCAR                                  
  positions in direct lattice
  velocities in cartesian coordinates
 exchange correlation table for  LEXCH =        8
   RHO(1)=    0.500       N(1)  =     2000
   RHO(2)=  100.500       N(2)  =     4000

 VTST: version 3.2, (02/03/18)

 CHAIN: initializing optimizer
 
 OPT: Using VASP Dynamics algorithm
 CHAIN: Read ICHAIN            0
 
 POSCAR: POSCAR                                  
  positions in direct lattice
  velocities in cartesian coordinates
 


--------------------------------------------------------------------------------------------------------


 ion  position               nearest neighbor table
   1  0.087  0.163  0.095-   5 2.48  13 2.48  17 2.48  49 2.48  31 2.48   3 2.48  29 2.87  53 2.87
                            15 2.87  19 2.87
   2  0.087  0.162  0.286-  32 2.45   4 2.46  31 2.46   3 2.46  50 2.48  14 2.48  18 2.48   6 2.48
                            16 2.80  20 2.80  15 2.85  19 2.85  54 2.87  30 2.87
   3  0.212  0.038  0.191-   2 2.46  54 2.46  15 2.48   7 2.48  51 2.48  19 2.48  53 2.48   1 2.48
                             6 2.82  50 2.83  31 2.87  55 2.87  49 2.87   5 2.87
   4  0.216  0.041  0.381-  65 2.19  54 2.45   2 2.46  16 2.46  52 2.47  20 2.51   8 2.51   6 2.84
                            56 2.87  32 2.87  50 2.91
   5  0.337  0.163  0.095-   1 2.48   9 2.48  21 2.48  53 2.48   7 2.48  19 2.48  17 2.87  57 2.87
                             3 2.87  23 2.87
   6  0.337  0.162  0.284-   7 2.43  19 2.43  54 2.48  10 2.48   2 2.48  22 2.48  20 2.50   8 2.50
                             3 2.82  23 2.82   4 2.84  24 2.84  58 2.87  18 2.87
   7  0.462  0.038  0.191-   6 2.43  58 2.43  11 2.48   3 2.48  55 2.48  23 2.48  57 2.48   5 2.48
                            54 2.85  10 2.85  19 2.87  59 2.87  53 2.87   9 2.87
   8  0.472  0.028  0.377-  65 1.85  58 2.37  12 2.47  56 2.47   6 2.50  24 2.51   4 2.51  60 2.65
                            10 2.80  54 2.80  20 3.08
   9  0.587  0.163  0.095-   5 2.48  13 2.48  25 2.48  57 2.48  11 2.48  23 2.48  21 2.87  61 2.87
                             7 2.87  27 2.87
  10  0.587  0.163  0.286-  12 2.45  24 2.46  23 2.47  11 2.47  58 2.48  14 2.48   6 2.48  26 2.48
                            28 2.80   8 2.80   7 2.85  27 2.85  22 2.87  62 2.87
  11  0.712  0.038  0.191-  62 2.47  10 2.47  15 2.48   7 2.48  59 2.48  27 2.48  61 2.48   9 2.48
                            14 2.82  58 2.82  23 2.87  63 2.87  57 2.87  13 2.87
  12  0.716  0.041  0.381-  66 2.19  10 2.45  62 2.46   8 2.47  60 2.47  28 2.51  16 2.51  14 2.84
                            24 2.87  64 2.87  58 2.91
  13  0.837  0.163  0.095-   1 2.48   9 2.48  29 2.48  61 2.48  15 2.48  27 2.48  49 2.87  25 2.87
                            11 2.87  31 2.87
  14  0.837  0.163  0.284-  27 2.43  15 2.43  62 2.48  10 2.48   2 2.48  30 2.48  16 2.50  28 2.50
                            11 2.82  31 2.82  32 2.84  12 2.84  26 2.87  50 2.87
  15  0.962  0.038  0.191-  14 2.43  50 2.43   3 2.48  11 2.48  31 2.48  63 2.48  13 2.48  49 2.48
                             2 2.85  62 2.85  27 2.87  51 2.87   1 2.87  61 2.87
  16  0.972  0.028  0.377-  66 1.85  50 2.37   4 2.46  64 2.47  14 2.50  32 2.51  12 2.51  52 2.65
                            62 2.79   2 2.80  28 3.09
  17  0.087  0.413  0.095-  21 2.48  29 2.48   1 2.48  33 2.48  19 2.48  47 2.48  45 2.87   5 2.87
                            31 2.87  35 2.87
  18  0.087  0.413  0.284-  48 2.37  20 2.37  19 2.43  47 2.43  30 2.48   2 2.48  34 2.48  22 2.48
                            31 2.82  35 2.82  46 2.87   6 2.87  32 2.91  36 2.91
  19  0.212  0.288  0.191-   6 2.43  18 2.43  23 2.48  31 2.48   3 2.48  35 2.48   5 2.48  17 2.48
                            22 2.85   2 2.85   7 2.87  47 2.87  21 2.87   1 2.87
  20  0.203  0.297  0.377-  65 1.85  18 2.37  32 2.47  36 2.47   6 2.50   4 2.51  24 2.51  48 2.65
                             2 2.80  22 2.80   8 3.08
  21  0.337  0.413  0.095-  17 2.48  25 2.48   5 2.48  37 2.48  35 2.48  23 2.48   9 2.87  33 2.87
                            19 2.87  39 2.87
  22  0.337  0.413  0.286-  24 2.45  36 2.45  35 2.47  23 2.47  18 2.48  26 2.48   6 2.48  38 2.48
                            40 2.80  20 2.80  19 2.85  39 2.85  10 2.87  34 2.87
  23  0.462  0.288  0.191-  10 2.47  22 2.47  19 2.48  27 2.48   7 2.48  39 2.48  21 2.48   9 2.48
                             6 2.82  26 2.82  35 2.87  11 2.87   5 2.87  25 2.87
  24  0.459  0.285  0.381-  65 2.20  22 2.45  10 2.46  28 2.47  40 2.47  20 2.51   8 2.51   6 2.84
                            36 2.86  12 2.87  26 2.91
  25  0.587  0.413  0.095-  21 2.48  29 2.48   9 2.48  41 2.48  39 2.48  27 2.48  13 2.87  37 2.87
                            23 2.87  43 2.87
  26  0.587  0.413  0.284-  28 2.37  40 2.37  39 2.43  27 2.43  30 2.48  42 2.48  10 2.48  22 2.48
                            43 2.82  23 2.82  14 2.87  38 2.87  44 2.91  24 2.91
  27  0.712  0.288  0.191-  14 2.43  26 2.43  23 2.48  31 2.48  11 2.48  43 2.48  25 2.48  13 2.48
                            30 2.85  10 2.85  39 2.87  15 2.87   9 2.87  29 2.87
  28  0.703  0.297  0.377-  66 1.85  26 2.37  24 2.47  44 2.47  14 2.50  12 2.51  32 2.51  40 2.65
                            10 2.80  30 2.80  16 3.09
  29  0.837  0.413  0.095-  17 2.48  25 2.48  13 2.48  45 2.48  43 2.48  31 2.48   1 2.87  41 2.87
                            27 2.87  47 2.87
  30  0.837  0.413  0.286-  32 2.45  44 2.45  43 2.47  31 2.47  26 2.48  18 2.48  46 2.48  14 2.48
                            48 2.80  28 2.80  27 2.85  47 2.85  42 2.87   2 2.87
  31  0.962  0.288  0.191-   2 2.46  30 2.47  27 2.48  19 2.48  15 2.48  47 2.48   1 2.48  29 2.48
                            14 2.82  18 2.82  43 2.87   3 2.87  17 2.87  13 2.87
  32  0.959  0.284  0.381-  66 2.20   2 2.45  30 2.45  20 2.47  48 2.47  16 2.51  28 2.51  14 2.84
                             4 2.87  44 2.87  18 2.91
  33  0.087  0.663  0.095-  37 2.48  45 2.48  17 2.48  49 2.48  35 2.48  63 2.48  61 2.87  21 2.87
                            47 2.87  51 2.87
  34  0.087  0.663  0.286-  64 2.46  36 2.46  35 2.47  63 2.47  50 2.48  46 2.48  38 2.48  18 2.48
                            48 2.80  52 2.80  51 2.85  47 2.85  22 2.87  62 2.87
  35  0.212  0.538  0.191-  34 2.47  22 2.47  39 2.48  47 2.48  19 2.48  51 2.48  21 2.48  33 2.48
                            38 2.82  18 2.82  23 2.87  63 2.87  37 2.87  17 2.87
  36  0.216  0.541  0.381-  68 2.20  22 2.45  34 2.46  48 2.47  20 2.47  40 2.51  52 2.51  38 2.84
                            24 2.86  64 2.87  18 2.91
  37  0.337  0.663  0.095-  33 2.48  41 2.48  21 2.48  53 2.48  51 2.48  39 2.48  25 2.87  49 2.87
                            35 2.87  55 2.87
  38  0.337  0.663  0.284-  51 2.43  39 2.43  54 2.48  34 2.48  42 2.48  22 2.48  40 2.50  52 2.50
                            55 2.82  35 2.82  56 2.84  36 2.84  50 2.87  26 2.87
  39  0.462  0.538  0.191-  38 2.43  26 2.43  35 2.48  43 2.48  23 2.48  55 2.48  37 2.48  25 2.48
                            22 2.85  42 2.85  51 2.87  27 2.87  21 2.87  41 2.87
  40  0.472  0.528  0.377-  68 1.85  26 2.37  44 2.47  24 2.47  38 2.50  56 2.51  36 2.51  28 2.65
                            22 2.80  42 2.80  52 3.08
  41  0.587  0.663  0.095-  37 2.48  45 2.48  25 2.48  57 2.48  55 2.48  43 2.48  29 2.87  53 2.87
                            39 2.87  59 2.87
  42  0.588  0.663  0.286-  44 2.45  56 2.46  55 2.46  43 2.46  58 2.48  46 2.48  26 2.48  38 2.48
                            60 2.80  40 2.80  59 2.85  39 2.85  54 2.87  30 2.87
  43  0.712  0.538  0.191-  42 2.46  30 2.47  39 2.48  47 2.48  27 2.48  59 2.48  41 2.48  29 2.48
                            46 2.82  26 2.82  55 2.87  31 2.87  25 2.87  45 2.87
  44  0.716  0.541  0.381-  67 2.20  42 2.45  30 2.45  40 2.47  28 2.47  60 2.51  48 2.51  46 2.84
                            56 2.87  32 2.87  26 2.91
  45  0.837  0.663  0.095-  33 2.48  41 2.48  29 2.48  61 2.48  59 2.48  47 2.48  17 2.87  57 2.87
                            43 2.87  63 2.87
  46  0.838  0.663  0.284-  47 2.43  59 2.43  62 2.48  34 2.48  42 2.48  30 2.48  60 2.50  48 2.50
                            63 2.82  43 2.82  44 2.84  64 2.84  18 2.87  58 2.87
  47  0.962  0.538  0.191-  46 2.43  18 2.43  43 2.48  35 2.48  31 2.48  63 2.48  17 2.48  45 2.48
                            30 2.85  34 2.85  59 2.87  19 2.87  33 2.87  29 2.87
  48  0.972  0.528  0.377-  67 1.85  18 2.37  36 2.47  32 2.47  46 2.50  64 2.51  44 2.51  20 2.65
                            34 2.80  30 2.80  60 3.09
  49  0.087  0.913  0.095-  53 2.48  61 2.48   1 2.48  33 2.48  15 2.48  51 2.48  37 2.87  13 2.87
                             3 2.87  63 2.87
  50  0.087  0.912  0.284-  16 2.37  52 2.37  51 2.43  15 2.43  34 2.48  62 2.48   2 2.48  54 2.48
                            63 2.82   3 2.83  38 2.87  14 2.87   4 2.91  64 2.91
  51  0.212  0.788  0.191-  38 2.43  50 2.43  55 2.48  63 2.48   3 2.48  35 2.48  49 2.48  37 2.48
                            54 2.85  34 2.85  39 2.87  15 2.87  53 2.87  33 2.87
  52  0.203  0.797  0.377-  68 1.85  50 2.37  64 2.47   4 2.47  38 2.50  56 2.51  36 2.51  16 2.65
                            34 2.80  54 2.80  40 3.08
  53  0.337  0.913  0.095-  49 2.48  57 2.48   5 2.48  37 2.48  55 2.48   3 2.48  41 2.87   1 2.87
                             7 2.87  51 2.87
  54  0.337  0.913  0.286-  56 2.45   4 2.45   3 2.46  55 2.47  38 2.48   6 2.48  50 2.48  58 2.48
                             8 2.80  52 2.80  51 2.85   7 2.85  42 2.87   2 2.87
  55  0.462  0.788  0.191-  42 2.46  54 2.47  51 2.48  59 2.48   7 2.48  39 2.48  41 2.48  53 2.48
                            38 2.82  58 2.83  43 2.87   3 2.87  37 2.87  57 2.87
  56  0.459  0.785  0.381-  68 2.20  54 2.45  42 2.46  60 2.47   8 2.47  40 2.51  52 2.51  38 2.84
                             4 2.87  44 2.87  58 2.91
  57  0.587  0.913  0.095-  53 2.48  61 2.48   9 2.48  41 2.48  59 2.48   7 2.48  45 2.87   5 2.87
                            11 2.87  55 2.87
  58  0.587  0.913  0.284-  60 2.37   8 2.37   7 2.43  59 2.43  10 2.48  62 2.48  42 2.48  54 2.48
                            11 2.82  55 2.83   6 2.87  46 2.87  56 2.91  12 2.91
  59  0.712  0.788  0.191-  46 2.43  58 2.43  55 2.48  63 2.48  11 2.48  43 2.48  45 2.48  57 2.48
                            42 2.85  62 2.85  47 2.87   7 2.87  41 2.87  61 2.87
  60  0.703  0.797  0.377-  67 1.85  58 2.37  56 2.47  12 2.47  46 2.50  44 2.51  64 2.51   8 2.65
                            62 2.79  42 2.80  48 3.09
  61  0.837  0.913  0.095-  49 2.48  57 2.48  13 2.48  45 2.48  11 2.48  63 2.48   9 2.87  33 2.87
                            59 2.87  15 2.87
  62  0.837  0.913  0.286-  64 2.46  12 2.46  11 2.47  63 2.47  14 2.48  46 2.48  58 2.48  50 2.48
                            16 2.79  60 2.79  59 2.85  15 2.85  10 2.87  34 2.87
  63  0.962  0.788  0.191-  62 2.47  34 2.47  59 2.48  51 2.48  47 2.48  15 2.48  61 2.48  33 2.48
                            46 2.82  50 2.82  35 2.87  11 2.87  49 2.87  45 2.87
  64  0.959  0.784  0.381-  67 2.19  62 2.46  34 2.46  52 2.47  16 2.47  48 2.51  60 2.51  46 2.84
                            36 2.87  12 2.87  50 2.91
  65  0.337  0.162  0.426-   8 1.85  20 1.85   4 2.19  24 2.20
  66  0.837  0.162  0.426-  16 1.85  28 1.85  12 2.19  32 2.20
  67  0.838  0.663  0.426-  60 1.85  48 1.85  64 2.19  44 2.20
  68  0.337  0.663  0.426-  40 1.85  52 1.85  56 2.20  36 2.20
 

IMPORTANT INFORMATION: All symmetrisations will be switched off!
NOSYMM: (Re-)initialisation of all symmetry stuff for point group C_1.

 
 

Automatic generation of k-mesh.
 generate k-points for:    4    4    2
Space group operators:
 irot       det(A)        alpha          n_x          n_y          n_z        tau_x        tau_y        tau_z
    1     1.000000     0.000001     1.000000     0.000000     0.000000     0.000000     0.000000     0.000000
 
 Subroutine IBZKPT returns following result:
 ===========================================
 
 Found     20 irreducible k-points:
 
 Following reciprocal coordinates:
            Coordinates               Weight
  0.000000  0.000000  0.000000      1.000000
  0.250000  0.000000  0.000000      2.000000
  0.500000  0.000000  0.000000      1.000000
  0.000000  0.250000  0.000000      2.000000
  0.250000  0.250000  0.000000      2.000000
  0.500000  0.250000  0.000000      2.000000
 -0.250000  0.250000  0.000000      2.000000
  0.000000  0.500000  0.000000      1.000000
  0.250000  0.500000  0.000000      2.000000
  0.500000  0.500000  0.000000      1.000000
  0.000000  0.000000  0.500000      1.000000
  0.250000  0.000000  0.500000      2.000000
  0.500000  0.000000  0.500000      1.000000
  0.000000  0.250000  0.500000      2.000000
  0.250000  0.250000  0.500000      2.000000
  0.500000  0.250000  0.500000      2.000000
 -0.250000  0.250000  0.500000      2.000000
  0.000000  0.500000  0.500000      1.000000
  0.250000  0.500000  0.500000      2.000000
  0.500000  0.500000  0.500000      1.000000
 
 Following cartesian coordinates:
            Coordinates               Weight
  0.000000  0.000000  0.000000      1.000000
  0.025178 -0.008902  0.000000      2.000000
  0.050355 -0.017803  0.000000      1.000000
  0.000000  0.026705  0.000000      2.000000
  0.025178  0.017803  0.000000      2.000000
  0.050355  0.008902  0.000000      2.000000
 -0.025178  0.035606  0.000000      2.000000
  0.000000  0.053410  0.000000      1.000000
  0.025178  0.044508  0.000000      2.000000
  0.050355  0.035606  0.000000      1.000000
  0.000000  0.000000  0.023719      1.000000
  0.025178 -0.008902  0.023719      2.000000
  0.050355 -0.017803  0.023719      1.000000
  0.000000  0.026705  0.023719      2.000000
  0.025178  0.017803  0.023719      2.000000
  0.050355  0.008902  0.023719      2.000000
 -0.025178  0.035606  0.023719      2.000000
  0.000000  0.053410  0.023719      1.000000
  0.025178  0.044508  0.023719      2.000000
  0.050355  0.035606  0.023719      1.000000
 
 TETIRR: Found     96 inequivalent tetrahedra from      192


--------------------------------------------------------------------------------------------------------




 Dimension of arrays:
   k-points           NKPTS =     20   k-points in BZ     NKDIM =     20   number of bands    NBANDS=    357
   number of dos      NEDOS =    301   number of ions     NIONS =     68
   non local maximal  LDIM  =      6   non local SUM 2l+1 LMDIM =     18
   total plane-waves  NPLWV = ******
   max r-space proj   IRMAX =   7948   max aug-charges    IRDMAX=  18812
   dimension x,y,z NGX =    80 NGY =   80 NGZ =  160
   dimension x,y,z NGXF=   160 NGYF=  160 NGZF=  320
   support grid    NGXF=   160 NGYF=  160 NGZF=  320
   ions per type =              64   4
   NGX,Y,Z   is equivalent  to a cutoff of  13.39, 13.39, 12.62 a.u.
   NGXF,Y,Z  is equivalent  to a cutoff of  26.79, 26.79, 25.24 a.u.

 SYSTEM =  SQS-NiFe                                
 POSCAR =  POSCAR                                  

 Startparameter for this run:
   NWRITE =      2    write-flag & timer
   PREC   = accura    normal or accurate (medium, high low for compatibility)
   ISTART =      0    job   : 0-new  1-cont  2-samecut
   ICHARG =     11    charge: 1-file 2-atom 10-const
   ISPIN  =      2    spin polarized calculation?
   LNONCOLLINEAR =      F non collinear calculations
   LSORBIT =      F    spin-orbit coupling
   INIWAV =      1    electr: 0-lowe 1-rand  2-diag
   LASPH  =      F    aspherical Exc in radial PAW
   METAGGA=      F    non-selfconsistent MetaGGA calc.

 Electronic Relaxation 1
   ENCUT  =  520.0 eV  38.22 Ry    6.18 a.u.  18.46 18.46 39.20*2*pi/ulx,y,z
   ENINI  =  520.0     initial cutoff
   ENAUG  =  605.4 eV  augmentation charge cutoff
   NELM   =    200;   NELMIN=  2; NELMDL=  0     # of ELM steps 
   EDIFF  = 0.1E-05   stopping-criterion for ELM
   LREAL  =      T    real-space projection
   NLSPLINE    = F    spline interpolate recip. space projectors
   LCOMPAT=      F    compatible to vasp.4.4
   GGA_COMPAT  = T    GGA compatible to vasp.4.4-vasp.4.6
   LMAXPAW     = -100 max onsite density
   LMAXMIX     =    2 max onsite mixed and CHGCAR
   VOSKOWN=      0    Vosko Wilk Nusair interpolation
   ROPT   =   -0.00025  -0.00025
 Ionic relaxation
   EDIFFG = -.2E-01   stopping-criterion for IOM
   NSW    =      0    number of steps for IOM
   NBLOCK =      1;   KBLOCK =      1    inner block; outer block 
   IBRION =     -1    ionic relax: 0-MD 1-quasi-New 2-CG
   NFREE  =      0    steps in history (QN), initial steepest desc. (CG)
   ISIF   =      2    stress and relaxation
   IWAVPR =     10    prediction:  0-non 1-charg 2-wave 3-comb
   ISYM   =      0    0-nonsym 1-usesym 2-fastsym
   LCORR  =      T    Harris-Foulkes like correction to forces

   POTIM  = 0.5000    time-step for ionic-motion
   TEIN   =    0.0    initial temperature
   TEBEG  =    0.0;   TEEND  =   0.0 temperature during run
   SMASS  =  -3.00    Nose mass-parameter (am)
   estimated Nose-frequenzy (Omega)   =  0.10E-29 period in steps =****** mass=  -0.225E-26a.u.
   SCALEE = 1.0000    scale energy and forces
   NPACO  =    256;   APACO  = 16.0  distance and # of slots for P.C.
   PSTRESS=    0.0 pullay stress

  Mass of Ions in am
   POMASS =  55.85 16.00
  Ionic Valenz
   ZVAL   =   8.00  6.00
  Atomic Wigner-Seitz radii
   RWIGS  =  -1.00 -1.00
  virtual crystal weights 
   VCA    =   1.00  1.00
   NELECT =     536.0000    total number of electrons
   NUPDOWN=      -1.0000    fix difference up-down

 DOS related values:
   EMIN   =  10.00;   EMAX   =-10.00  energy-range for DOS
   EFERMI =   0.00
   ISMEAR =    -5;   SIGMA  =   0.20  broadening in eV -4-tet -1-fermi 0-gaus

 Electronic relaxation 2 (details)
   IALGO  =     68    algorithm
   LDIAG  =      T    sub-space diagonalisation (order eigenvalues)
   LSUBROT=      F    optimize rotation matrix (better conditioning)
   TURBO    =      0    0=normal 1=particle mesh
   IRESTART =      0    0=no restart 2=restart with 2 vectors
   NREBOOT  =      0    no. of reboots
   NMIN     =      0    reboot dimension
   EREF     =   0.00    reference energy to select bands
   IMIX   =      4    mixing-type and parameters
     AMIX     =   0.40;   BMIX     =  1.00
     AMIX_MAG =   1.60;   BMIX_MAG =  1.00
     AMIN     =   0.10
     WC   =   100.;   INIMIX=   1;  MIXPRE=   1;  MAXMIX= -45

 Intra band minimization:
   WEIMIN = 0.0000     energy-eigenvalue tresh-hold
   EBREAK =  0.70E-09  absolut break condition
   DEPER  =   0.30     relativ break condition  

   TIME   =   0.40     timestep for ELM

  volume/ion in A,a.u.               =      28.82       194.47
  Fermi-wavevector in a.u.,A,eV,Ry     =   1.062697  2.008207 15.365410  1.129326
  Thomas-Fermi vector in A             =   2.198157
 
 Write flags
   LWAVE        =      F    write WAVECAR
   LDOWNSAMPLE  =      F    k-point downsampling of WAVECAR
   LCHARG       =      F    write CHGCAR
   LVTOT        =      F    write LOCPOT, total local potential
   LVHAR        =      F    write LOCPOT, Hartree potential only
   LELF         =      F    write electronic localiz. function (ELF)
   LORBIT       =     11    0 simple, 1 ext, 2 COOP (PROOUT), +10 PAW based schemes


 Dipole corrections
   LMONO  =      F    monopole corrections only (constant potential shift)
   LDIPOL =      T    correct potential (dipole corrections)
   IDIPOL =      3    1-x, 2-y, 3-z, 4-all directions 
   EPSILON=  1.0000000 bulk dielectric constant

 Exchange correlation treatment:
   GGA     =    --    GGA type
   LEXCH   =     8    internal setting for exchange type
   VOSKOWN=      0    Vosko Wilk Nusair interpolation
   LHFCALC =     F    Hartree Fock is set to
   LHFONE  =     F    Hartree Fock one center treatment
   AEXX    =    0.0000 exact exchange contribution

 Linear response parameters
   LEPSILON=     F    determine dielectric tensor
   LRPA    =     F    only Hartree local field effects (RPA)
   LNABLA  =     F    use nabla operator in PAW spheres
   LVEL    =     F    velocity operator in full k-point grid
   LINTERFAST=   F  fast interpolation
   KINTER  =     0    interpolate to denser k-point grid
   CSHIFT  =0.1000    complex shift for real part using Kramers Kronig
   OMEGAMAX=  -1.0    maximum frequency
   DEG_THRESHOLD= 0.2000000E-02 threshold for treating states as degnerate
   RTIME   =   -0.100 relaxation time in fs
  (WPLASMAI=    0.000 imaginary part of plasma frequency in eV, 0.658/RTIME)
   DFIELD  = 0.0000000 0.0000000 0.0000000 field for delta impulse in time
 
 Orbital magnetization related:
   ORBITALMAG=     F  switch on orbital magnetization
   LCHIMAG   =     F  perturbation theory with respect to B field
   DQ        =  0.001000  dq finite difference perturbation B field
   LLRAUG    =     F  two centre corrections for induced B field



--------------------------------------------------------------------------------------------------------


 Static calculation
 charge density and potential remain constant during run
 spin polarized calculation
 RMM-DIIS sequential band-by-band and
  variant of blocked Davidson during initial phase
 perform sub-space diagonalisation
    before iterative eigenvector-optimisation
 no mixing
 using additional bands           89
 real space projection scheme for non local part
 use partial core corrections
 calculate Harris-corrections to forces 
   (improved forces if not selfconsistent)
 use gradient corrections 
 WARNING: stress and forces are not correct
  (second derivative of E(xc) not defined)
 use of overlap-Matrix (Vanderbilt PP)
 Fermi weights with tetrahedron method with Bloechl corrections


--------------------------------------------------------------------------------------------------------


  energy-cutoff  :      520.00
  volume of cell :     1959.57
      direct lattice vectors                 reciprocal lattice vectors
     9.929500000  0.000000000  0.000000000     0.100710006 -0.035606363  0.000000000
     3.309833230  9.361622420  0.000000000     0.000000000  0.106819091  0.000000000
     0.000000000  0.000000000 21.080550000     0.000000000  0.000000000  0.047437092

  length of vectors
     9.929500000  9.929500005 21.080550000     0.106819091  0.106819091  0.047437092


 
 k-points in units of 2pi/SCALE and weight: read from INCAR                         
   0.00000000  0.00000000  0.00000000       0.031
   0.02517750 -0.00890159  0.00000000       0.062
   0.05035500 -0.01780318  0.00000000       0.031
   0.00000000  0.02670477  0.00000000       0.062
   0.02517750  0.01780318  0.00000000       0.062
   0.05035500  0.00890159  0.00000000       0.062
  -0.02517750  0.03560636  0.00000000       0.062
   0.00000000  0.05340955  0.00000000       0.031
   0.02517750  0.04450795  0.00000000       0.062
   0.05035500  0.03560636  0.00000000       0.031
   0.00000000  0.00000000  0.02371855       0.031
   0.02517750 -0.00890159  0.02371855       0.062
   0.05035500 -0.01780318  0.02371855       0.031
   0.00000000  0.02670477  0.02371855       0.062
   0.02517750  0.01780318  0.02371855       0.062
   0.05035500  0.00890159  0.02371855       0.062
  -0.02517750  0.03560636  0.02371855       0.062
   0.00000000  0.05340955  0.02371855       0.031
   0.02517750  0.04450795  0.02371855       0.062
   0.05035500  0.03560636  0.02371855       0.031
 
 k-points in reciprocal lattice and weights: read from INCAR                         
   0.00000000  0.00000000  0.00000000       0.031
   0.25000000  0.00000000  0.00000000       0.062
   0.50000000  0.00000000  0.00000000       0.031
   0.00000000  0.25000000  0.00000000       0.062
   0.25000000  0.25000000  0.00000000       0.062
   0.50000000  0.25000000  0.00000000       0.062
  -0.25000000  0.25000000  0.00000000       0.062
   0.00000000  0.50000000  0.00000000       0.031
   0.25000000  0.50000000  0.00000000       0.062
   0.50000000  0.50000000  0.00000000       0.031
   0.00000000  0.00000000  0.50000000       0.031
   0.25000000  0.00000000  0.50000000       0.062
   0.50000000  0.00000000  0.50000000       0.031
   0.00000000  0.25000000  0.50000000       0.062
   0.25000000  0.25000000  0.50000000       0.062
   0.50000000  0.25000000  0.50000000       0.062
  -0.25000000  0.25000000  0.50000000       0.062
   0.00000000  0.50000000  0.50000000       0.031
   0.25000000  0.50000000  0.50000000       0.062
   0.50000000  0.50000000  0.50000000       0.031
 
 position of ions in fractional coordinates (direct lattice) 
   0.08738900  0.16261100  0.09487400
   0.08723758  0.16247069  0.28612732
   0.21238900  0.03761100  0.19102200
   0.21558538  0.04067454  0.38065513
   0.33738900  0.16261100  0.09487400
   0.33733252  0.16249040  0.28398560
   0.46238900  0.03761100  0.19102200
   0.47191325  0.02820072  0.37748355
   0.58738900  0.16261100  0.09487400
   0.58725708  0.16270544  0.28622518
   0.71238900  0.03761100  0.19102200
   0.71551333  0.04100289  0.38075144
   0.83738900  0.16261100  0.09487400
   0.83724125  0.16252360  0.28393063
   0.96238900  0.03761100  0.19102200
   0.97197375  0.02793043  0.37736440
   0.08738900  0.41261100  0.09487400
   0.08729703  0.41251211  0.28428335
   0.21238900  0.28761100  0.19102200
   0.20284031  0.29690137  0.37735165
   0.33738900  0.41261100  0.09487400
   0.33737152  0.41260749  0.28619692
   0.46238900  0.28761100  0.19102200
   0.45902310  0.28462103  0.38074100
   0.58738900  0.41261100  0.09487400
   0.58745238  0.41271138  0.28427978
   0.71238900  0.28761100  0.19102200
   0.70265730  0.29734870  0.37738304
   0.83738900  0.41261100  0.09487400
   0.83737133  0.41261265  0.28616748
   0.96238900  0.28761100  0.19102200
   0.95911570  0.28423859  0.38057998
   0.08738900  0.66261100  0.09487400
   0.08748813  0.66251475  0.28622697
   0.21238900  0.53761100  0.19102200
   0.21569210  0.54057434  0.38074779
   0.33738900  0.66261100  0.09487400
   0.33741622  0.66272789  0.28398604
   0.46238900  0.53761100  0.19102200
   0.47187460  0.52831212  0.37735330
   0.58738900  0.66261100  0.09487400
   0.58750901  0.66274815  0.28612464
   0.71238900  0.53761100  0.19102200
   0.71558480  0.54100605  0.38058420
   0.83738900  0.66261100  0.09487400
   0.83750092  0.66269897  0.28393063
   0.96238900  0.53761100  0.19102200
   0.97205312  0.52789329  0.37738131
   0.08738900  0.91261100  0.09487400
   0.08735398  0.91245202  0.28433170
   0.21238900  0.78761100  0.19102200
   0.20279943  0.79700992  0.37748346
   0.33738900  0.91261100  0.09487400
   0.33737112  0.91260708  0.28616030
   0.46238900  0.78761100  0.19102200
   0.45912101  0.78452154  0.38064941
   0.58738900  0.91261100  0.09487400
   0.58739136  0.91277471  0.28432883
   0.71238900  0.78761100  0.19102200
   0.70272555  0.79731493  0.37736680
   0.83738900  0.91261100  0.09487400
   0.83736831  0.91261328  0.28625252
   0.96238900  0.78761100  0.19102200
   0.95917241  0.78424726  0.38074571
   0.33693731  0.16226400  0.42619542
   0.83694807  0.16215659  0.42602807
   0.83776977  0.66306895  0.42602533
   0.33747055  0.66261882  0.42619978
 
 position of ions in cartesian coordinates  (Angst):
   1.40594437  1.52230278  1.99999610
   1.40397649  1.52098927  6.03172119
   2.23340271  0.35209998  4.02684882
   2.27528093  0.38077967  8.02441954
   3.88831937  1.52230278  1.99999610
   3.88735935  1.52117377  5.98657265
   4.71577771  0.35209998  4.02684882
   4.77920232  0.26400450  7.95756085
   6.37069437  1.52230278  1.99999610
   6.36969710  1.52318693  6.03378415
   7.19815271  0.35209998  4.02684882
   7.24040236  0.38385362  8.02644983
   8.85306937  1.52230278  1.99999610
   8.85131299  1.52148459  5.98541383
   9.68052771  0.35209998  4.02684882
   9.74365840  0.26147413  7.95504918
   2.23340267  3.86270839  1.99999610
   2.23216214  3.86178258  5.99284935
   3.06086102  2.69250559  4.02684882
   2.99679690  2.77947854  7.95478042
   4.71577767  3.86270839  1.99999610
   4.71559248  3.86267553  6.03318858
   5.54323602  2.69250559  4.02684882
   5.49991806  2.66451464  8.02622971
   7.19815267  3.86270839  1.99999610
   7.19911426  3.86364808  5.99277410
   8.02561102  2.69250559  4.02684882
   7.96121031  2.78366628  7.95544212
   9.68052767  3.86270839  1.99999610
   9.68035764  3.86272384  6.03256795
  10.50798602  2.69250559  4.02684882
  10.46432168  2.66093435  8.02283530
   3.06086098  6.20311399  1.99999610
   3.06152671  6.20221294  6.03382199
   3.88831933  5.03291119  4.02684882
   3.93092566  5.06065284  8.02637283
   5.54323598  6.20311399  1.99999610
   5.54389315  6.20420829  5.98658190
   6.37069433  5.03291119  4.02684882
   6.43410382  4.94585858  7.95481507
   8.02561098  6.20311399  1.99999610
   8.02725661  6.20439796  6.03166481
   8.85306933  5.03291119  4.02684882
   8.89603907  5.06469438  8.02292434
  10.50798598  6.20311399  1.99999610
  10.50938844  6.20393751  5.98541393
  11.33544433  5.03291119  4.02684882
  11.39924016  4.94193761  7.95540558
   3.88831929  8.54351960  1.99999610
   3.88744535  8.54203132  5.99386870
   4.71577764  7.37331680  4.02684882
   4.65166684  7.46130597  7.95755887
   6.37069429  8.54351960  1.99999610
   6.37050381  8.54348289  6.03241657
   7.19815264  7.37331680  4.02684882
   7.15547750  7.34439444  8.02429902
   8.85306929  8.54351960  1.99999610
   8.85363460  8.54505215  5.99380815
   9.68052764  7.37331680  4.02684882
   9.61669279  7.46416132  7.95509977
  11.33544429  8.54351960  1.99999610
  11.33524637  8.54354091  6.03436053
  12.16290264  7.37331680  4.02684882
  12.11983012  7.34182673  8.02632889
   3.88268575  1.51905426  8.98443377
   8.84718712  1.51804880  8.98090604
  10.51328261  6.20740117  8.98084835
   5.54407159  6.20318719  8.98452569
 


--------------------------------------------------------------------------------------------------------


 k-point  1 :   0.0000 0.0000 0.0000  plane waves:   52797
 k-point  2 :   0.2500 0.0000 0.0000  plane waves:   52779
 k-point  3 :   0.5000 0.0000 0.0000  plane waves:   52744
 k-point  4 :   0.0000 0.2500 0.0000  plane waves:   52779
 k-point  5 :   0.2500 0.2500 0.0000  plane waves:   52750
 k-point  6 :   0.5000 0.2500 0.0000  plane waves:   52748
 k-point  7 :  -0.2500 0.2500 0.0000  plane waves:   52735
 k-point  8 :   0.0000 0.5000 0.0000  plane waves:   52744
 k-point  9 :   0.2500 0.5000 0.0000  plane waves:   52748
 k-point 10 :   0.5000 0.5000 0.0000  plane waves:   52708
 k-point 11 :   0.0000 0.0000 0.5000  plane waves:   52814
 k-point 12 :   0.2500 0.0000 0.5000  plane waves:   52780
 k-point 13 :   0.5000 0.0000 0.5000  plane waves:   52804
 k-point 14 :   0.0000 0.2500 0.5000  plane waves:   52780
 k-point 15 :   0.2500 0.2500 0.5000  plane waves:   52788
 k-point 16 :   0.5000 0.2500 0.5000  plane waves:   52750
 k-point 17 :  -0.2500 0.2500 0.5000  plane waves:   52762
 k-point 18 :   0.0000 0.5000 0.5000  plane waves:   52804
 k-point 19 :   0.2500 0.5000 0.5000  plane waves:   52750
 k-point 20 :   0.5000 0.5000 0.5000  plane waves:   52708

 maximum and minimum number of plane-waves per node :      2226     2176

 maximum number of plane-waves:     52814
 maximum index in each direction: 
   IXMAX=   18   IYMAX=   18   IZMAX=   39
   IXMIN=  -18   IYMIN=  -18   IZMIN=  -39


 real space projection operators:
  total allocation   :      69504.09 KBytes
  max/ min on nodes  :       3514.77       2558.52


 parallel 3D FFT for wavefunctions:
    minimum data exchange during FFTs selected (reduces bandwidth)
 parallel 3D FFT for charge:
    minimum data exchange during FFTs selected (reduces bandwidth)


 total amount of memory used by VASP MPI-rank0   239549. kBytes
=======================================================================

   base      :      30000. kBytes
   nonlr-proj:      13412. kBytes
   fftplans  :       6402. kBytes
   grid      :      16455. kBytes
   one-center:         93. kBytes
   wavefun   :     173187. kBytes
 
     INWAV:  cpu time    0.0000: real time    0.0002
 initial charge density was supplied:
 number of electron     536.0000175 magnetization     159.2074557
 keeping initial charge density in first step


--------------------------------------------------------------------------------------------------------


 Maximum index for non-local projection operator          801
 Maximum index for augmentation-charges         1219 (set IRDMAX)


--------------------------------------------------------------------------------------------------------


 First call to EWALD:  gamma=   0.142
 Maximum number of real-space cells 4x 4x 2
 Maximum number of reciprocal cells 2x 2x 4

    FEWALD:  cpu time    0.0034: real time    0.0034


--------------------------------------- Iteration      1(   1)  ---------------------------------------


    POTLOK:  cpu time    0.4139: real time    0.4231
    SETDIJ:  cpu time    0.0246: real time    0.0246
     EDDAV:  cpu time  127.0676: real time  127.1107
 BZINTS: Fermi energy: 10.312281;536.000000 electrons
         Band energy:3419.000872;  BLOECHL correction: -0.019186
       DOS:  cpu time    0.1982: real time    0.1982
    --------------------------------------------
      LOOP:  cpu time  127.7043: real time  127.7567

 eigenvalue-minimisations  : 28560
 total energy-change (2. order) : 0.4559141E+04  (-0.2265732E+05)
 number of electron     536.0000175 magnetization     159.2074557
 augmentation part      536.0000175 magnetization     159.2074557

 DIPCOR: dipole corrections for dipol
 direction  3 min pos   244,
 dipolmoment           0.000000      0.000000      0.172759 electrons x Angstroem
 Tr[quadrupol]     -8729.259923

 energy correction for charged system         0.000000 eV
 dipol+quadrupol energy correction           -0.001378 eV
 added-field ion interaction          2.416985 eV  (added to PSCEN)


 Free energy of the ion-electron system (eV)
  ---------------------------------------------------
  alpha Z        PSCENC =      1540.12753194
  Ewald energy   TEWEN  =    148189.10809822
  -Hartree energ DENC   =   -188158.53479702
  -exchange      EXHF   =         0.00000000
  -V(xc)+E(xc)   XCENC  =       391.09669865
  PAW double counting   =     46890.34061441   -47477.44196666
  entropy T*S    EENTRO =         0.00000000
  eigenvalues    EBANDS =      3419.00087209
  atomic energy  EATOM  =     39765.44351111
  Solvation  Ediel_sol  =         0.00000000
  ---------------------------------------------------
  free energy    TOTEN  =      4559.14056273 eV

  energy without entropy =     4559.14056273  energy(sigma->0) =     4559.14056273


--------------------------------------------------------------------------------------------------------




--------------------------------------- Iteration      1(   2)  ---------------------------------------


     EDDAV:  cpu time  127.1759: real time  127.2351
 BZINTS: Fermi energy:  0.937862;536.000000 electrons
         Band energy:***********;  BLOECHL correction: -0.008662
       DOS:  cpu time    0.2048: real time    0.2049
    --------------------------------------------
      LOOP:  cpu time  127.3807: real time  127.4400

 eigenvalue-minimisations  : 28569
 total energy-change (2. order) :-0.4569604E+04  (-0.4325331E+04)
 number of electron     536.0000175 magnetization     159.2074557
 augmentation part      536.0000175 magnetization     159.2074557

 DIPCOR: dipole corrections for dipol
 direction  3 min pos   244,
 dipolmoment           0.000000      0.000000      0.172759 electrons x Angstroem
 Tr[quadrupol]     -8729.259923

 energy correction for charged system         0.000000 eV
 dipol+quadrupol energy correction           -0.001378 eV
 added-field ion interaction          2.416985 eV  (added to PSCEN)


 Free energy of the ion-electron system (eV)
  ---------------------------------------------------
  alpha Z        PSCENC =      1540.12753194
  Ewald energy   TEWEN  =    148189.10809822
  -Hartree energ DENC   =   -188158.53479702
  -exchange      EXHF   =         0.00000000
  -V(xc)+E(xc)   XCENC  =       391.09669865
  PAW double counting   =     46890.34061441   -47477.44196666
  entropy T*S    EENTRO =         0.00000000
  eigenvalues    EBANDS =     -1150.60348960
  atomic energy  EATOM  =     39765.44351111
  Solvation  Ediel_sol  =         0.00000000
  ---------------------------------------------------
  free energy    TOTEN  =       -10.46379896 eV

  energy without entropy =      -10.46379896  energy(sigma->0) =      -10.46379896


--------------------------------------------------------------------------------------------------------




--------------------------------------- Iteration      1(   3)  ---------------------------------------


     EDDAV:  cpu time  144.5739: real time  144.6419
 BZINTS: Fermi energy: -0.230020;536.000000 electrons
         Band energy:***********;  BLOECHL correction: -0.026432
       DOS:  cpu time    0.1860: real time    0.1860
    --------------------------------------------
      LOOP:  cpu time  144.7599: real time  144.8278

 eigenvalue-minimisations  : 33729
 total energy-change (2. order) :-0.4419349E+03  (-0.3922705E+03)
 number of electron     536.0000175 magnetization     159.2074557
 augmentation part      536.0000175 magnetization     159.2074557

 DIPCOR: dipole corrections for dipol
 direction  3 min pos   244,
 dipolmoment           0.000000      0.000000      0.172759 electrons x Angstroem
 Tr[quadrupol]     -8729.259923

 energy correction for charged system         0.000000 eV
 dipol+quadrupol energy correction           -0.001378 eV
 added-field ion interaction          2.416985 eV  (added to PSCEN)


 Free energy of the ion-electron system (eV)
  ---------------------------------------------------
  alpha Z        PSCENC =      1540.12753194
  Ewald energy   TEWEN  =    148189.10809822
  -Hartree energ DENC   =   -188158.53479702
  -exchange      EXHF   =         0.00000000
  -V(xc)+E(xc)   XCENC  =       391.09669865
  PAW double counting   =     46890.34061441   -47477.44196666
  entropy T*S    EENTRO =         0.00000000
  eigenvalues    EBANDS =     -1592.53836141
  atomic energy  EATOM  =     39765.44351111
  Solvation  Ediel_sol  =         0.00000000
  ---------------------------------------------------
  free energy    TOTEN  =      -452.39867076 eV

  energy without entropy =     -452.39867076  energy(sigma->0) =     -452.39867076


--------------------------------------------------------------------------------------------------------




--------------------------------------- Iteration      1(   4)  ---------------------------------------


     EDDAV:  cpu time  213.0977: real time  213.1942
 BZINTS: Fermi energy: -0.554854;536.000000 electrons
         Band energy:***********;  BLOECHL correction: -0.032727
       DOS:  cpu time    0.1907: real time    0.1907
    --------------------------------------------
      LOOP:  cpu time  213.2885: real time  213.3850

 eigenvalue-minimisations  : 54330
 total energy-change (2. order) :-0.7291810E+02  (-0.6827939E+02)
 number of electron     536.0000175 magnetization     159.2074557
 augmentation part      536.0000175 magnetization     159.2074557

 DIPCOR: dipole corrections for dipol
 direction  3 min pos   244,
 dipolmoment           0.000000      0.000000      0.172759 electrons x Angstroem
 Tr[quadrupol]     -8729.259923

 energy correction for charged system         0.000000 eV
 dipol+quadrupol energy correction           -0.001378 eV
 added-field ion interaction          2.416985 eV  (added to PSCEN)


 Free energy of the ion-electron system (eV)
  ---------------------------------------------------
  alpha Z        PSCENC =      1540.12753194
  Ewald energy   TEWEN  =    148189.10809822
  -Hartree energ DENC   =   -188158.53479702
  -exchange      EXHF   =         0.00000000
  -V(xc)+E(xc)   XCENC  =       391.09669865
  PAW double counting   =     46890.34061441   -47477.44196666
  entropy T*S    EENTRO =         0.00000000
  eigenvalues    EBANDS =     -1665.45646029
  atomic energy  EATOM  =     39765.44351111
  Solvation  Ediel_sol  =         0.00000000
  ---------------------------------------------------
  free energy    TOTEN  =      -525.31676964 eV

  energy without entropy =     -525.31676964  energy(sigma->0) =     -525.31676964


--------------------------------------------------------------------------------------------------------




--------------------------------------- Iteration      1(   5)  ---------------------------------------


     EDDAV:  cpu time  188.5949: real time  188.6802
 BZINTS: Fermi energy: -0.613485;536.000000 electrons
         Band energy:***********;  BLOECHL correction: -0.033714
       DOS:  cpu time    0.1959: real time    0.1959
    --------------------------------------------
      LOOP:  cpu time  188.7908: real time  188.8761

 eigenvalue-minimisations  : 47004
 total energy-change (2. order) :-0.5980081E+01  (-0.5660996E+01)
 number of electron     536.0000175 magnetization     159.2074557
 augmentation part      536.0000175 magnetization     159.2074557

 DIPCOR: dipole corrections for dipol
 direction  3 min pos   244,
 dipolmoment           0.000000      0.000000      0.172759 electrons x Angstroem
 Tr[quadrupol]     -8729.259923

 energy correction for charged system         0.000000 eV
 dipol+quadrupol energy correction           -0.001378 eV
 added-field ion interaction          2.416985 eV  (added to PSCEN)


 Free energy of the ion-electron system (eV)
  ---------------------------------------------------
  alpha Z        PSCENC =      1540.12753194
  Ewald energy   TEWEN  =    148189.10809822
  -Hartree energ DENC   =   -188158.53479702
  -exchange      EXHF   =         0.00000000
  -V(xc)+E(xc)   XCENC  =       391.09669865
  PAW double counting   =     46890.34061441   -47477.44196666
  entropy T*S    EENTRO =         0.00000000
  eigenvalues    EBANDS =     -1671.43654124
  atomic energy  EATOM  =     39765.44351111
  Solvation  Ediel_sol  =         0.00000000
  ---------------------------------------------------
  free energy    TOTEN  =      -531.29685059 eV

  energy without entropy =     -531.29685059  energy(sigma->0) =     -531.29685059


--------------------------------------------------------------------------------------------------------




--------------------------------------- Iteration      1(   6)  ---------------------------------------


    EDDIAG:  cpu time   19.1433: real time   19.1647
  RMM-DIIS:  cpu time   74.6164: real time   74.6461
    ORTHCH:  cpu time    5.2258: real time    5.2265
 BZINTS: Fermi energy: -0.619301;536.000000 electrons
         Band energy:***********;  BLOECHL correction: -0.032231
       DOS:  cpu time    0.1965: real time    0.1965
    --------------------------------------------
      LOOP:  cpu time   99.1820: real time   99.2338

 eigenvalue-minimisations  : 30856
 total energy-change (2. order) :-0.2908067E+00  (-0.2886675E+00)
 number of electron     536.0000175 magnetization     159.2074557
 augmentation part      536.0000175 magnetization     159.2074557

 DIPCOR: dipole corrections for dipol
 direction  3 min pos   244,
 dipolmoment           0.000000      0.000000      0.172759 electrons x Angstroem
 Tr[quadrupol]     -8729.259923

 energy correction for charged system         0.000000 eV
 dipol+quadrupol energy correction           -0.001378 eV
 added-field ion interaction          2.416985 eV  (added to PSCEN)


 Free energy of the ion-electron system (eV)
  ---------------------------------------------------
  alpha Z        PSCENC =      1540.12753194
  Ewald energy   TEWEN  =    148189.10809822
  -Hartree energ DENC   =   -188158.53479702
  -exchange      EXHF   =         0.00000000
  -V(xc)+E(xc)   XCENC  =       391.09669865
  PAW double counting   =     46890.34061441   -47477.44196666
  entropy T*S    EENTRO =         0.00000000
  eigenvalues    EBANDS =     -1671.72734791
  atomic energy  EATOM  =     39765.44351111
  Solvation  Ediel_sol  =         0.00000000
  ---------------------------------------------------
  free energy    TOTEN  =      -531.58765727 eV

  energy without entropy =     -531.58765727  energy(sigma->0) =     -531.58765727


--------------------------------------------------------------------------------------------------------




--------------------------------------- Iteration      1(   7)  ---------------------------------------


    EDDIAG:  cpu time   19.1118: real time   19.1364
  RMM-DIIS:  cpu time  113.2829: real time  113.3201
    ORTHCH:  cpu time    5.1996: real time    5.2051
 BZINTS: Fermi energy: -0.621408;536.000000 electrons
         Band energy:***********;  BLOECHL correction: -0.030687
       DOS:  cpu time    0.1964: real time    0.1964
    --------------------------------------------
      LOOP:  cpu time  137.7907: real time  137.8580

 eigenvalue-minimisations  : 47727
 total energy-change (2. order) :-0.1317377E+00  (-0.1300043E+00)
 number of electron     536.0000175 magnetization     159.2074557
 augmentation part      536.0000175 magnetization     159.2074557

 DIPCOR: dipole corrections for dipol
 direction  3 min pos   244,
 dipolmoment           0.000000      0.000000      0.172759 electrons x Angstroem
 Tr[quadrupol]     -8729.259923

 energy correction for charged system         0.000000 eV
 dipol+quadrupol energy correction           -0.001378 eV
 added-field ion interaction          2.416985 eV  (added to PSCEN)


 Free energy of the ion-electron system (eV)
  ---------------------------------------------------
  alpha Z        PSCENC =      1540.12753194
  Ewald energy   TEWEN  =    148189.10809822
  -Hartree energ DENC   =   -188158.53479702
  -exchange      EXHF   =         0.00000000
  -V(xc)+E(xc)   XCENC  =       391.09669865
  PAW double counting   =     46890.34061441   -47477.44196666
  entropy T*S    EENTRO =         0.00000000
  eigenvalues    EBANDS =     -1671.85908566
  atomic energy  EATOM  =     39765.44351111
  Solvation  Ediel_sol  =         0.00000000
  ---------------------------------------------------
  free energy    TOTEN  =      -531.71939501 eV

  energy without entropy =     -531.71939501  energy(sigma->0) =     -531.71939501


--------------------------------------------------------------------------------------------------------




--------------------------------------- Iteration      1(   8)  ---------------------------------------


    EDDIAG:  cpu time   19.1023: real time   19.1216
  RMM-DIIS:  cpu time  128.9943: real time  129.0393
    ORTHCH:  cpu time    5.2024: real time    5.2077
 BZINTS: Fermi energy: -0.622814;536.000000 electrons
         Band energy:***********;  BLOECHL correction: -0.029894
       DOS:  cpu time    0.1960: real time    0.1960
    --------------------------------------------
      LOOP:  cpu time  153.4949: real time  153.5645

 eigenvalue-minimisations  : 54253
 total energy-change (2. order) :-0.4196089E-01  (-0.4532260E-01)
 number of electron     536.0000175 magnetization     159.2074557
 augmentation part      536.0000175 magnetization     159.2074557

 DIPCOR: dipole corrections for dipol
 direction  3 min pos   244,
 dipolmoment           0.000000      0.000000      0.172759 electrons x Angstroem
 Tr[quadrupol]     -8729.259923

 energy correction for charged system         0.000000 eV
 dipol+quadrupol energy correction           -0.001378 eV
 added-field ion interaction          2.416985 eV  (added to PSCEN)


 Free energy of the ion-electron system (eV)
  ---------------------------------------------------
  alpha Z        PSCENC =      1540.12753194
  Ewald energy   TEWEN  =    148189.10809822
  -Hartree energ DENC   =   -188158.53479702
  -exchange      EXHF   =         0.00000000
  -V(xc)+E(xc)   XCENC  =       391.09669865
  PAW double counting   =     46890.34061441   -47477.44196666
  entropy T*S    EENTRO =         0.00000000
  eigenvalues    EBANDS =     -1671.90104655
  atomic energy  EATOM  =     39765.44351111
  Solvation  Ediel_sol  =         0.00000000
  ---------------------------------------------------
  free energy    TOTEN  =      -531.76135590 eV

  energy without entropy =     -531.76135590  energy(sigma->0) =     -531.76135590


--------------------------------------------------------------------------------------------------------




--------------------------------------- Iteration      1(   9)  ---------------------------------------


    EDDIAG:  cpu time   19.1419: real time   19.1613
  RMM-DIIS:  cpu time  129.8029: real time  129.8524
    ORTHCH:  cpu time    5.2122: real time    5.2130
 BZINTS: Fermi energy: -0.623771;536.000000 electrons
         Band energy:***********;  BLOECHL correction: -0.029368
       DOS:  cpu time    0.1955: real time    0.1955
    --------------------------------------------
      LOOP:  cpu time  154.3525: real time  154.4222

 eigenvalue-minimisations  : 54721
 total energy-change (2. order) :-0.2330166E-01  (-0.2342157E-01)
 number of electron     536.0000175 magnetization     159.2074557
 augmentation part      536.0000175 magnetization     159.2074557

 DIPCOR: dipole corrections for dipol
 direction  3 min pos   244,
 dipolmoment           0.000000      0.000000      0.172759 electrons x Angstroem
 Tr[quadrupol]     -8729.259923

 energy correction for charged system         0.000000 eV
 dipol+quadrupol energy correction           -0.001378 eV
 added-field ion interaction          2.416985 eV  (added to PSCEN)


 Free energy of the ion-electron system (eV)
  ---------------------------------------------------
  alpha Z        PSCENC =      1540.12753194
  Ewald energy   TEWEN  =    148189.10809822
  -Hartree energ DENC   =   -188158.53479702
  -exchange      EXHF   =         0.00000000
  -V(xc)+E(xc)   XCENC  =       391.09669865
  PAW double counting   =     46890.34061441   -47477.44196666
  entropy T*S    EENTRO =         0.00000000
  eigenvalues    EBANDS =     -1671.92434821
  atomic energy  EATOM  =     39765.44351111
  Solvation  Ediel_sol  =         0.00000000
  ---------------------------------------------------
  free energy    TOTEN  =      -531.78465756 eV

  energy without entropy =     -531.78465756  energy(sigma->0) =     -531.78465756


--------------------------------------------------------------------------------------------------------




--------------------------------------- Iteration      1(  10)  ---------------------------------------


    EDDIAG:  cpu time   19.1375: real time   19.1585
  RMM-DIIS:  cpu time  116.5653: real time  116.6065
    ORTHCH:  cpu time    5.2028: real time    5.2079
 BZINTS: Fermi energy: -0.624400;536.000000 electrons
         Band energy:***********;  BLOECHL correction: -0.029130
       DOS:  cpu time    0.1906: real time    0.1907
    --------------------------------------------
      LOOP:  cpu time  141.0963: real time  141.1636

 eigenvalue-minimisations  : 49150
 total energy-change (2. order) :-0.1468218E-01  (-0.1472932E-01)
 number of electron     536.0000175 magnetization     159.2074557
 augmentation part      536.0000175 magnetization     159.2074557

 DIPCOR: dipole corrections for dipol
 direction  3 min pos   244,
 dipolmoment           0.000000      0.000000      0.172759 electrons x Angstroem
 Tr[quadrupol]     -8729.259923

 energy correction for charged system         0.000000 eV
 dipol+quadrupol energy correction           -0.001378 eV
 added-field ion interaction          2.416985 eV  (added to PSCEN)


 Free energy of the ion-electron system (eV)
  ---------------------------------------------------
  alpha Z        PSCENC =      1540.12753194
  Ewald energy   TEWEN  =    148189.10809822
  -Hartree energ DENC   =   -188158.53479702
  -exchange      EXHF   =         0.00000000
  -V(xc)+E(xc)   XCENC  =       391.09669865
  PAW double counting   =     46890.34061441   -47477.44196666
  entropy T*S    EENTRO =         0.00000000
  eigenvalues    EBANDS =     -1671.93903039
  atomic energy  EATOM  =     39765.44351111
  Solvation  Ediel_sol  =         0.00000000
  ---------------------------------------------------
  free energy    TOTEN  =      -531.79933974 eV

  energy without entropy =     -531.79933974  energy(sigma->0) =     -531.79933974


--------------------------------------------------------------------------------------------------------




--------------------------------------- Iteration      1(  11)  ---------------------------------------


    EDDIAG:  cpu time   19.1278: real time   19.1475
  RMM-DIIS:  cpu time  104.6732: real time  104.7160
    ORTHCH:  cpu time    5.2075: real time    5.2084
 BZINTS: Fermi energy: -0.624809;536.000000 electrons
         Band energy:***********;  BLOECHL correction: -0.029052
       DOS:  cpu time    0.1905: real time    0.1905
    --------------------------------------------
      LOOP:  cpu time  129.1989: real time  129.2624

 eigenvalue-minimisations  : 43880
 total energy-change (2. order) :-0.9541938E-02  (-0.9552659E-02)
 number of electron     536.0000175 magnetization     159.2074557
 augmentation part      536.0000175 magnetization     159.2074557

 DIPCOR: dipole corrections for dipol
 direction  3 min pos   244,
 dipolmoment           0.000000      0.000000      0.172759 electrons x Angstroem
 Tr[quadrupol]     -8729.259923

 energy correction for charged system         0.000000 eV
 dipol+quadrupol energy correction           -0.001378 eV
 added-field ion interaction          2.416985 eV  (added to PSCEN)


 Free energy of the ion-electron system (eV)
  ---------------------------------------------------
  alpha Z        PSCENC =      1540.12753194
  Ewald energy   TEWEN  =    148189.10809822
  -Hartree energ DENC   =   -188158.53479702
  -exchange      EXHF   =         0.00000000
  -V(xc)+E(xc)   XCENC  =       391.09669865
  PAW double counting   =     46890.34061441   -47477.44196666
  entropy T*S    EENTRO =         0.00000000
  eigenvalues    EBANDS =     -1671.94857233
  atomic energy  EATOM  =     39765.44351111
  Solvation  Ediel_sol  =         0.00000000
  ---------------------------------------------------
  free energy    TOTEN  =      -531.80888168 eV

  energy without entropy =     -531.80888168  energy(sigma->0) =     -531.80888168


--------------------------------------------------------------------------------------------------------




--------------------------------------- Iteration      1(  12)  ---------------------------------------


    EDDIAG:  cpu time   19.1305: real time   19.1525
  RMM-DIIS:  cpu time   91.9758: real time   92.0222
    ORTHCH:  cpu time    5.2037: real time    5.2045
 BZINTS: Fermi energy: -0.625095;536.000000 electrons
         Band energy:***********;  BLOECHL correction: -0.029067
       DOS:  cpu time    0.1858: real time    0.1858
    --------------------------------------------
      LOOP:  cpu time  116.4958: real time  116.5651

 eigenvalue-minimisations  : 38260
 total energy-change (2. order) :-0.6460658E-02  (-0.6406892E-02)
 number of electron     536.0000175 magnetization     159.2074557
 augmentation part      536.0000175 magnetization     159.2074557

 DIPCOR: dipole corrections for dipol
 direction  3 min pos   244,
 dipolmoment           0.000000      0.000000      0.172759 electrons x Angstroem
 Tr[quadrupol]     -8729.259923

 energy correction for charged system         0.000000 eV
 dipol+quadrupol energy correction           -0.001378 eV
 added-field ion interaction          2.416985 eV  (added to PSCEN)


 Free energy of the ion-electron system (eV)
  ---------------------------------------------------
  alpha Z        PSCENC =      1540.12753194
  Ewald energy   TEWEN  =    148189.10809822
  -Hartree energ DENC   =   -188158.53479702
  -exchange      EXHF   =         0.00000000
  -V(xc)+E(xc)   XCENC  =       391.09669865
  PAW double counting   =     46890.34061441   -47477.44196666
  entropy T*S    EENTRO =         0.00000000
  eigenvalues    EBANDS =     -1671.95503298
  atomic energy  EATOM  =     39765.44351111
  Solvation  Ediel_sol  =         0.00000000
  ---------------------------------------------------
  free energy    TOTEN  =      -531.81534234 eV

  energy without entropy =     -531.81534234  energy(sigma->0) =     -531.81534234


--------------------------------------------------------------------------------------------------------




--------------------------------------- Iteration      1(  13)  ---------------------------------------


    EDDIAG:  cpu time   19.1533: real time   19.1754
  RMM-DIIS:  cpu time   84.7814: real time   84.8162
    ORTHCH:  cpu time    5.2135: real time    5.2144
 BZINTS: Fermi energy: -0.625305;536.000000 electrons
         Band energy:***********;  BLOECHL correction: -0.029088
       DOS:  cpu time    0.1856: real time    0.1856
    --------------------------------------------
      LOOP:  cpu time  109.3338: real time  109.3917

 eigenvalue-minimisations  : 34956
 total energy-change (2. order) :-0.4376868E-02  (-0.4313855E-02)
 number of electron     536.0000175 magnetization     159.2074557
 augmentation part      536.0000175 magnetization     159.2074557

 DIPCOR: dipole corrections for dipol
 direction  3 min pos   244,
 dipolmoment           0.000000      0.000000      0.172759 electrons x Angstroem
 Tr[quadrupol]     -8729.259923

 energy correction for charged system         0.000000 eV
 dipol+quadrupol energy correction           -0.001378 eV
 added-field ion interaction          2.416985 eV  (added to PSCEN)


 Free energy of the ion-electron system (eV)
  ---------------------------------------------------
  alpha Z        PSCENC =      1540.12753194
  Ewald energy   TEWEN  =    148189.10809822
  -Hartree energ DENC   =   -188158.53479702
  -exchange      EXHF   =         0.00000000
  -V(xc)+E(xc)   XCENC  =       391.09669865
  PAW double counting   =     46890.34061441   -47477.44196666
  entropy T*S    EENTRO =         0.00000000
  eigenvalues    EBANDS =     -1671.95940985
  atomic energy  EATOM  =     39765.44351111
  Solvation  Ediel_sol  =         0.00000000
  ---------------------------------------------------
  free energy    TOTEN  =      -531.81971921 eV

  energy without entropy =     -531.81971921  energy(sigma->0) =     -531.81971921


--------------------------------------------------------------------------------------------------------




--------------------------------------- Iteration      1(  14)  ---------------------------------------


    EDDIAG:  cpu time   19.0991: real time   19.1233
  RMM-DIIS:  cpu time   80.8044: real time   80.8398
    ORTHCH:  cpu time    5.2165: real time    5.2174
 BZINTS: Fermi energy: -0.625540;536.000000 electrons
         Band energy:***********;  BLOECHL correction: -0.028909
       DOS:  cpu time    0.1949: real time    0.1950
    --------------------------------------------
      LOOP:  cpu time  105.3159: real time  105.3755

 eigenvalue-minimisations  : 33102
 total energy-change (2. order) :-0.2739531E-02  (-0.2761486E-02)
 number of electron     536.0000175 magnetization     159.2074557
 augmentation part      536.0000175 magnetization     159.2074557

 DIPCOR: dipole corrections for dipol
 direction  3 min pos   244,
 dipolmoment           0.000000      0.000000      0.172759 electrons x Angstroem
 Tr[quadrupol]     -8729.259923

 energy correction for charged system         0.000000 eV
 dipol+quadrupol energy correction           -0.001378 eV
 added-field ion interaction          2.416985 eV  (added to PSCEN)


 Free energy of the ion-electron system (eV)
  ---------------------------------------------------
  alpha Z        PSCENC =      1540.12753194
  Ewald energy   TEWEN  =    148189.10809822
  -Hartree energ DENC   =   -188158.53479702
  -exchange      EXHF   =         0.00000000
  -V(xc)+E(xc)   XCENC  =       391.09669865
  PAW double counting   =     46890.34061441   -47477.44196666
  entropy T*S    EENTRO =         0.00000000
  eigenvalues    EBANDS =     -1671.96214938
  atomic energy  EATOM  =     39765.44351111
  Solvation  Ediel_sol  =         0.00000000
  ---------------------------------------------------
  free energy    TOTEN  =      -531.82245874 eV

  energy without entropy =     -531.82245874  energy(sigma->0) =     -531.82245874


--------------------------------------------------------------------------------------------------------




--------------------------------------- Iteration      1(  15)  ---------------------------------------


    EDDIAG:  cpu time   19.1381: real time   19.1591
  RMM-DIIS:  cpu time   77.0408: real time   77.0683
    ORTHCH:  cpu time    5.2223: real time    5.2232
 BZINTS: Fermi energy: -0.625703;536.000000 electrons
         Band energy:***********;  BLOECHL correction: -0.028887
       DOS:  cpu time    0.1857: real time    0.1857
    --------------------------------------------
      LOOP:  cpu time  101.5859: real time  101.6363

 eigenvalue-minimisations  : 31152
 total energy-change (2. order) :-0.1977462E-02  (-0.1907618E-02)
 number of electron     536.0000175 magnetization     159.2074557
 augmentation part      536.0000175 magnetization     159.2074557

 DIPCOR: dipole corrections for dipol
 direction  3 min pos   244,
 dipolmoment           0.000000      0.000000      0.172759 electrons x Angstroem
 Tr[quadrupol]     -8729.259923

 energy correction for charged system         0.000000 eV
 dipol+quadrupol energy correction           -0.001378 eV
 added-field ion interaction          2.416985 eV  (added to PSCEN)


 Free energy of the ion-electron system (eV)
  ---------------------------------------------------
  alpha Z        PSCENC =      1540.12753194
  Ewald energy   TEWEN  =    148189.10809822
  -Hartree energ DENC   =   -188158.53479702
  -exchange      EXHF   =         0.00000000
  -V(xc)+E(xc)   XCENC  =       391.09669865
  PAW double counting   =     46890.34061441   -47477.44196666
  entropy T*S    EENTRO =         0.00000000
  eigenvalues    EBANDS =     -1671.96412685
  atomic energy  EATOM  =     39765.44351111
  Solvation  Ediel_sol  =         0.00000000
  ---------------------------------------------------
  free energy    TOTEN  =      -531.82443620 eV

  energy without entropy =     -531.82443620  energy(sigma->0) =     -531.82443620


--------------------------------------------------------------------------------------------------------




--------------------------------------- Iteration      1(  16)  ---------------------------------------


    EDDIAG:  cpu time   19.1046: real time   19.1206
  RMM-DIIS:  cpu time   72.3471: real time   72.3725
    ORTHCH:  cpu time    5.2174: real time    5.2183
 BZINTS: Fermi energy: -0.625826;536.000000 electrons
         Band energy:***********;  BLOECHL correction: -0.028917
       DOS:  cpu time    0.1902: real time    0.1903
    --------------------------------------------
      LOOP:  cpu time   96.8595: real time   96.9017

 eigenvalue-minimisations  : 28830
 total energy-change (2. order) :-0.1395893E-02  (-0.1306720E-02)
 number of electron     536.0000175 magnetization     159.2074557
 augmentation part      536.0000175 magnetization     159.2074557

 DIPCOR: dipole corrections for dipol
 direction  3 min pos   244,
 dipolmoment           0.000000      0.000000      0.172759 electrons x Angstroem
 Tr[quadrupol]     -8729.259923

 energy correction for charged system         0.000000 eV
 dipol+quadrupol energy correction           -0.001378 eV
 added-field ion interaction          2.416985 eV  (added to PSCEN)


 Free energy of the ion-electron system (eV)
  ---------------------------------------------------
  alpha Z        PSCENC =      1540.12753194
  Ewald energy   TEWEN  =    148189.10809822
  -Hartree energ DENC   =   -188158.53479702
  -exchange      EXHF   =         0.00000000
  -V(xc)+E(xc)   XCENC  =       391.09669865
  PAW double counting   =     46890.34061441   -47477.44196666
  entropy T*S    EENTRO =         0.00000000
  eigenvalues    EBANDS =     -1671.96552274
  atomic energy  EATOM  =     39765.44351111
  Solvation  Ediel_sol  =         0.00000000
  ---------------------------------------------------
  free energy    TOTEN  =      -531.82583209 eV

  energy without entropy =     -531.82583209  energy(sigma->0) =     -531.82583209


--------------------------------------------------------------------------------------------------------




--------------------------------------- Iteration      1(  17)  ---------------------------------------


    EDDIAG:  cpu time   19.1241: real time   19.1317
  RMM-DIIS:  cpu time   67.5866: real time   67.6104
    ORTHCH:  cpu time    5.2145: real time    5.2197
 BZINTS: Fermi energy: -0.625926;536.000000 electrons
         Band energy:***********;  BLOECHL correction: -0.028979
       DOS:  cpu time    0.1903: real time    0.1903
    --------------------------------------------
      LOOP:  cpu time   92.1155: real time   92.1521

 eigenvalue-minimisations  : 26371
 total energy-change (2. order) :-0.1022865E-02  (-0.9128600E-03)
 number of electron     536.0000175 magnetization     159.2074557
 augmentation part      536.0000175 magnetization     159.2074557

 DIPCOR: dipole corrections for dipol
 direction  3 min pos   244,
 dipolmoment           0.000000      0.000000      0.172759 electrons x Angstroem
 Tr[quadrupol]     -8729.259923

 energy correction for charged system         0.000000 eV
 dipol+quadrupol energy correction           -0.001378 eV
 added-field ion interaction          2.416985 eV  (added to PSCEN)


 Free energy of the ion-electron system (eV)
  ---------------------------------------------------
  alpha Z        PSCENC =      1540.12753194
  Ewald energy   TEWEN  =    148189.10809822
  -Hartree energ DENC   =   -188158.53479702
  -exchange      EXHF   =         0.00000000
  -V(xc)+E(xc)   XCENC  =       391.09669865
  PAW double counting   =     46890.34061441   -47477.44196666
  entropy T*S    EENTRO =         0.00000000
  eigenvalues    EBANDS =     -1671.96654560
  atomic energy  EATOM  =     39765.44351111
  Solvation  Ediel_sol  =         0.00000000
  ---------------------------------------------------
  free energy    TOTEN  =      -531.82685496 eV

  energy without entropy =     -531.82685496  energy(sigma->0) =     -531.82685496


--------------------------------------------------------------------------------------------------------




--------------------------------------- Iteration      1(  18)  ---------------------------------------


    EDDIAG:  cpu time   19.1525: real time   19.1635
  RMM-DIIS:  cpu time   63.9533: real time   63.9772
    ORTHCH:  cpu time    5.2100: real time    5.2107
 BZINTS: Fermi energy: -0.626004;536.000000 electrons
         Band energy:***********;  BLOECHL correction: -0.029105
       DOS:  cpu time    0.1903: real time    0.1946
    --------------------------------------------
      LOOP:  cpu time   88.5061: real time   88.5460

 eigenvalue-minimisations  : 24164
 total energy-change (2. order) :-0.7900772E-03  (-0.6268838E-03)
 number of electron     536.0000175 magnetization     159.2074557
 augmentation part      536.0000175 magnetization     159.2074557

 DIPCOR: dipole corrections for dipol
 direction  3 min pos   244,
 dipolmoment           0.000000      0.000000      0.172759 electrons x Angstroem
 Tr[quadrupol]     -8729.259923

 energy correction for charged system         0.000000 eV
 dipol+quadrupol energy correction           -0.001378 eV
 added-field ion interaction          2.416985 eV  (added to PSCEN)


 Free energy of the ion-electron system (eV)
  ---------------------------------------------------
  alpha Z        PSCENC =      1540.12753194
  Ewald energy   TEWEN  =    148189.10809822
  -Hartree energ DENC   =   -188158.53479702
  -exchange      EXHF   =         0.00000000
  -V(xc)+E(xc)   XCENC  =       391.09669865
  PAW double counting   =     46890.34061441   -47477.44196666
  entropy T*S    EENTRO =         0.00000000
  eigenvalues    EBANDS =     -1671.96733568
  atomic energy  EATOM  =     39765.44351111
  Solvation  Ediel_sol  =         0.00000000
  ---------------------------------------------------
  free energy    TOTEN  =      -531.82764503 eV

  energy without entropy =     -531.82764503  energy(sigma->0) =     -531.82764503


[...]
   -.188E-01 -.141E-01 0.191E+04   0.611E-03 -.119E-03 -.190E+04   0.192E-02 0.971E-03 -.351E+01   0.146E-01 0.140E-01 -.357E+01
   -.209E-01 -.239E-01 -.500E+03   -.775E-02 0.676E-02 0.499E+03   -.518E-03 0.180E-02 0.469E+00   0.297E-01 0.145E-01 0.131E+00
   -.238E+00 -.224E+00 0.726E+03   0.299E+00 0.271E+00 -.721E+03   -.375E-01 -.246E-01 -.530E+00   -.126E-01 -.154E-01 -.396E+01
   -.473E+02 -.340E+02 -.176E+04   0.493E+02 0.355E+02 0.175E+04   -.215E+01 -.152E+01 0.425E+01   0.103E+00 0.533E-01 0.137E+01
   -.210E-01 0.220E-01 0.191E+04   0.219E-01 -.126E-01 -.190E+04   -.334E-02 -.313E-02 -.352E+01   0.605E-03 -.373E-02 -.351E+01
   -.133E+00 0.287E+00 -.500E+03   0.159E+00 -.280E+00 0.500E+03   -.486E-02 0.250E-02 0.486E+00   -.247E-01 -.794E-02 -.101E-01
   0.175E+00 0.216E+00 0.725E+03   -.243E+00 -.254E+00 -.721E+03   0.330E-01 0.223E-01 -.527E+00   0.235E-01 0.617E-02 -.401E+01
   0.479E+02 0.340E+02 -.176E+04   -.499E+02 -.355E+02 0.175E+04   0.213E+01 0.153E+01 0.424E+01   -.972E-01 -.633E-01 0.137E+01
   0.641E-02 0.682E-02 0.191E+04   -.276E-01 -.276E-01 -.190E+04   0.334E-02 0.713E-02 -.353E+01   0.189E-01 0.161E-01 -.353E+01
   0.857E-01 0.339E+00 -.466E+03   -.152E+00 -.384E+00 0.465E+03   -.940E-02 -.773E-02 0.126E+01   0.692E-01 0.397E-01 -.162E+00
   -.126E+00 0.526E+00 0.730E+03   0.156E+00 -.582E+00 -.726E+03   0.358E-02 -.185E-02 -.359E+00   -.289E-01 0.548E-01 -.405E+01
   -.580E+02 0.815E+02 -.168E+04   0.592E+02 -.835E+02 0.168E+04   -.139E+01 0.196E+01 0.224E+01   0.139E+00 0.435E-01 0.151E+01
   0.524E-02 0.339E-02 0.191E+04   -.200E-01 -.826E-03 -.190E+04   0.148E-02 -.286E-02 -.352E+01   0.116E-01 0.336E-03 -.358E+01
   0.172E+00 0.769E-01 -.499E+03   -.210E+00 -.956E-01 0.499E+03   -.713E-02 -.328E-02 0.489E+00   0.346E-01 0.196E-01 0.103E+00
   0.212E+00 0.194E+00 0.726E+03   -.300E+00 -.267E+00 -.721E+03   0.395E-01 0.255E-01 -.531E+00   0.371E-01 0.408E-01 -.396E+01
   0.473E+02 0.339E+02 -.176E+04   -.494E+02 -.355E+02 0.175E+04   0.216E+01 0.153E+01 0.425E+01   -.494E-02 0.146E-01 0.140E+01
   0.102E-01 -.139E-01 0.191E+04   0.251E-01 0.103E-01 -.190E+04   -.291E-02 0.273E-02 -.354E+01   -.313E-01 -.232E-02 -.353E+01
   0.100E+00 0.299E+00 -.465E+03   -.292E-01 -.280E+00 0.464E+03   0.186E-02 0.188E-02 0.129E+01   -.778E-01 -.284E-01 -.125E+00
   -.497E+00 0.485E+00 0.730E+03   0.529E+00 -.529E+00 -.726E+03   0.519E-02 -.254E-02 -.358E+00   -.320E-01 0.394E-01 -.404E+01
   -.565E+02 0.819E+02 -.168E+04   0.579E+02 -.838E+02 0.168E+04   -.138E+01 0.198E+01 0.226E+01   -.908E-01 -.870E-01 0.153E+01
   -.282E-01 0.241E-01 0.191E+04   -.806E-02 -.262E-01 -.190E+04   0.776E-02 -.138E-02 -.358E+01   0.301E-01 0.429E-02 -.350E+01
   -.173E+00 0.575E-01 -.468E+03   0.144E+00 -.120E+00 0.468E+03   -.126E-03 0.421E-02 0.123E+00   0.344E-01 0.606E-01 -.102E+00
   0.437E+00 -.390E+00 0.730E+03   -.463E+00 0.429E+00 -.726E+03   -.192E-02 0.317E-02 -.358E+00   0.231E-01 -.375E-01 -.405E+01
   0.575E+02 -.813E+02 -.168E+04   -.589E+02 0.831E+02 0.168E+04   0.139E+01 -.197E+01 0.225E+01   0.528E-01 0.138E+00 0.151E+01
   -.829E-02 -.135E-01 0.191E+04   -.465E-03 -.262E-03 -.190E+04   0.249E-03 0.185E-02 -.353E+01   0.670E-02 0.112E-01 -.359E+01
   -.304E-01 0.114E-01 -.499E+03   0.179E-01 -.216E-01 0.499E+03   0.123E-02 -.320E-03 0.484E+00   0.110E-01 0.109E-01 0.120E+00
   -.226E+00 -.190E+00 0.726E+03   0.275E+00 0.252E+00 -.721E+03   -.311E-01 -.225E-01 -.528E+00   -.514E-02 -.289E-01 -.396E+01
   -.481E+02 -.336E+02 -.176E+04   0.501E+02 0.351E+02 0.175E+04   -.215E+01 -.151E+01 0.423E+01   0.124E+00 0.538E-01 0.138E+01
   0.301E-01 -.900E-02 0.191E+04   0.788E-02 0.255E-01 -.190E+04   -.739E-02 -.579E-03 -.358E+01   -.326E-01 -.169E-01 -.349E+01
   0.195E+00 -.157E-01 -.468E+03   -.161E+00 0.979E-01 0.468E+03   -.155E-02 -.360E-02 0.123E+00   -.371E-01 -.810E-01 -.627E-01
   0.331E+00 -.660E+00 0.730E+03   -.357E+00 0.704E+00 -.726E+03   0.240E-02 0.613E-02 -.362E+00   0.196E-01 -.412E-01 -.403E+01
   0.580E+02 -.805E+02 -.168E+04   -.593E+02 0.825E+02 0.168E+04   0.141E+01 -.196E+01 0.226E+01   -.115E+00 -.644E-01 0.152E+01
   0.662E-02 0.184E-01 0.191E+04   0.717E-03 -.475E-03 -.190E+04   -.212E-03 -.103E-02 -.353E+01   -.462E-02 -.169E-01 -.350E+01
   0.829E-02 0.179E-01 -.500E+03   -.361E-02 0.551E-02 0.500E+03   -.354E-02 -.172E-02 0.488E+00   -.494E-03 -.218E-01 -.131E-01
   -.299E+00 -.179E+00 0.725E+03   0.389E+00 0.230E+00 -.721E+03   -.378E-01 -.273E-01 -.532E+00   -.373E-01 -.162E-01 -.400E+01
   -.486E+02 -.343E+02 -.176E+04   0.507E+02 0.357E+02 0.175E+04   -.214E+01 -.150E+01 0.422E+01   -.517E-02 0.222E-01 0.140E+01
   0.361E-01 -.344E+00 -.169E+04   0.665E-01 0.424E+00 0.171E+04   -.120E-01 -.369E-01 -.230E+02   -.886E-01 -.457E-01 0.104E+01
   -.640E+00 -.770E+00 -.169E+04   0.616E+00 0.817E+00 0.171E+04   -.619E-01 -.541E-01 -.230E+02   0.855E-01 0.147E-01 0.107E+01
   0.693E+00 0.755E+00 -.169E+04   -.685E+00 -.784E+00 0.171E+04   0.664E-01 0.527E-01 -.230E+02   -.736E-01 -.316E-01 0.102E+01
   -.282E+00 0.165E+00 -.169E+04   0.232E+00 -.218E+00 0.171E+04   -.180E-01 0.116E-01 -.231E+02   0.659E-01 0.451E-01 0.107E+01
 -----------------------------------------------------------------------------------------------
   0.584E-01 0.597E-01 0.189E+03   -.422E-12 0.535E-12 0.364E-11   -.585E-01 -.561E-01 -.945E+02   0.838E-02 -.128E-01 -.937E+02
 
 
 POSITION                                       TOTAL-FORCE (eV/Angst)
 -----------------------------------------------------------------------------------
      1.40594      1.52230      2.00000         0.000890     -0.003784      0.349963
      1.40398      1.52099      6.03172         0.010038      0.001977     -0.035440
      2.23340      0.35210      4.02685        -0.012762     -0.010957     -0.233058
      2.27528      0.38078      8.02442         0.025815      0.014054     -0.033584
      3.88832      1.52230      2.00000        -0.000137     -0.001772      0.293561
      3.88736      1.52117      5.98657         0.007949      0.011984     -0.029624
      4.71578      0.35210      4.02685         0.005145     -0.004582     -0.363047
      4.77920      0.26400      7.95756        -0.002616      0.001798      0.039069
      6.37069      1.52230      2.00000         0.002383      0.001086      0.341160
      6.36970      1.52319      6.03378         0.003835     -0.000648     -0.038452
      7.19815      0.35210      4.02685        -0.015578     -0.007698     -0.222707
      7.24040      0.38385      8.02645         0.021526      0.018657     -0.041977
      8.85307      1.52230      2.00000        -0.001125      0.002579      0.288932
      8.85131      1.52148      5.98541         0.004921      0.007637     -0.018476
      9.68053      0.35210      4.02685         0.003210     -0.007863     -0.363949
      9.74366      0.26147      7.95505        -0.006144     -0.006396      0.052307
      2.23340      3.86271      2.00000        -0.002112      0.003949      0.367317
      2.23216      3.86178      5.99285         0.010151      0.002460     -0.026425
      3.06086      2.69251      4.02685        -0.005049      0.003513     -0.363220
      2.99680      2.77948      7.95478         0.003310      0.010392      0.046181
      4.71578      3.86271      2.00000         0.001390     -0.001132      0.346187
      4.71559      3.86268      6.03319         0.000368      0.000419     -0.039400
      5.54324      2.69251      4.02685         0.010632      0.008468     -0.225647
      5.49992      2.66451      8.02623        -0.023448     -0.023562     -0.043544
      7.19815      3.86271      2.00000         0.002783     -0.004216      0.369019
      7.19911      3.86365      5.99277        -0.010195     -0.002129     -0.023144
      8.02561      2.69251      4.02685        -0.005627      0.005998     -0.367472
      7.96121      2.78367      7.95544        -0.000355     -0.004827      0.050184
      9.68053      3.86271      2.00000        -0.001739      0.000881      0.352140
      9.68036      3.86272      6.03257         0.000371     -0.000669     -0.042846
     10.50799      2.69251      4.02685         0.010990      0.006427     -0.232271
     10.46432      2.66093      8.02284        -0.027610     -0.011273     -0.031214
      3.06086      6.20311      2.00000        -0.001976      0.002699      0.343229
      3.06153      6.20221      6.03382        -0.003222      0.001331     -0.039131
      3.88832      5.03291      4.02685        -0.011586     -0.008846     -0.224121
      3.93093      5.06065      8.02637         0.023655      0.024318     -0.044286
      5.54324      6.20311      2.00000         0.000972      0.002591      0.298310
      5.54389      6.20421      5.98658        -0.006978     -0.012569     -0.028759
      6.37069      5.03291      4.02685         0.004367     -0.003216     -0.364534
      6.43410      4.94586      7.95482        -0.000550     -0.014851      0.047753
      8.02561      6.20311      2.00000        -0.001723      0.000171      0.344760
      8.02726      6.20440      6.03166        -0.010300     -0.002265     -0.036036
      8.85307      5.03291      4.02685        -0.011083     -0.006224     -0.234045
      8.89604      5.06469      8.02292         0.026547      0.010916     -0.029494
     10.50799      6.20311      2.00000         0.000943     -0.003020      0.287363
     10.50939      6.20394      5.98541        -0.004922     -0.007404     -0.018890
     11.33544      5.03291      4.02685         0.005420     -0.006542     -0.366354
     11.39924      4.94194      7.95541        -0.001615      0.008065      0.047849
      3.88832      8.54352      2.00000         0.001458      0.000996      0.371895
      3.88745      8.54203      5.99387         0.005271      0.002236     -0.031165
      4.71578      7.37332      4.02685        -0.004674      0.004157     -0.364051
      4.65167      7.46131      7.95756         0.001627     -0.000289      0.044871
      6.37069      8.54352      2.00000        -0.001930     -0.000525      0.339270
      6.37050      8.54348      6.03242        -0.000331      0.000427     -0.035073
      7.19815      7.37332      4.02685         0.012793      0.011263     -0.232431
      7.15548      7.34439      8.02430        -0.025433     -0.013694     -0.034297
      8.85307      8.54352      2.00000        -0.002080     -0.000864      0.377903
      8.85363      8.54505      5.99381        -0.005086     -0.002268     -0.032996
      9.68053      7.37332      4.02685        -0.003996      0.008921     -0.362842
      9.61669      7.46416      7.95510         0.008408      0.003910      0.048425
     11.33544      8.54352      2.00000         0.002392      0.000115      0.344461
     11.33525      8.54354      6.03436         0.000520      0.000087     -0.045675
     12.16290      7.37332      4.02685         0.014308      0.007109     -0.223526
     12.11983      7.34183      8.02633        -0.021924     -0.018800     -0.041853
      3.88269      1.51905      8.98443         0.002015     -0.002559     -0.053760
      8.84719      1.51805      8.98091        -0.000807      0.007661     -0.058335
     10.51328      6.20740      8.98085         0.001151     -0.007048     -0.055127
      5.54407      6.20319      8.98453        -0.002842      0.003244     -0.059830
 -----------------------------------------------------------------------------------
    total drift:                                0.008271     -0.009183      0.502965


--------------------------------------------------------------------------------------------------------



  FREE ENERGIE OF THE ION-ELECTRON SYSTEM (eV)
  ---------------------------------------------------
  free  energy   TOTEN  =      -545.06435126 eV

  energy  without entropy=     -545.06435126  energy(sigma->0) =     -545.06435126
 


--------------------------------------------------------------------------------------------------------


    POTLOK:  cpu time    0.4462: real time    0.4494


--------------------------------------------------------------------------------------------------------


 stress matrix after NEB project (eV)
    -27.50566     -2.44910      0.00597
     -2.44910    -25.75735      0.00290
      0.00597      0.00290      8.56367
  FORCES: max atom, RMS     0.059985    0.031947
  FORCE total and by dimension    0.263440    0.059830
  Stress total and by dimension   38.798644   27.505659
     LOOP+:  cpu time 4227.4912: real time 4230.6565
    4ORBIT:  cpu time    0.0000: real time    0.0000
 


 total charge     
 
# of ion       s       p       d       tot
------------------------------------------
    1        0.463   0.369   6.185   7.017
    2        0.473   0.518   6.248   7.239
    3        0.472   0.510   6.248   7.230
    4        0.436   0.407   6.192   7.035
    5        0.465   0.367   6.184   7.016
    6        0.472   0.512   6.271   7.255
    7        0.475   0.512   6.258   7.246
    8        0.482   0.528   6.264   7.273
    9        0.463   0.369   6.185   7.017
   10        0.473   0.518   6.250   7.241
   11        0.472   0.510   6.246   7.227
   12        0.436   0.407   6.195   7.039
   13        0.465   0.367   6.185   7.017
   14        0.472   0.512   6.271   7.255
   15        0.475   0.512   6.258   7.245
   16        0.482   0.528   6.266   7.275
   17        0.464   0.368   6.193   7.024
   18        0.494   0.538   6.284   7.316
   19        0.475   0.512   6.258   7.245
   20        0.482   0.528   6.264   7.274
   21        0.463   0.369   6.185   7.017
   22        0.472   0.518   6.249   7.239
   23        0.472   0.510   6.246   7.228
   24        0.436   0.405   6.195   7.036
   25        0.464   0.368   6.192   7.024
   26        0.494   0.538   6.285   7.317
   27        0.475   0.512   6.259   7.246
   28        0.481   0.527   6.266   7.275
   29        0.463   0.369   6.183   7.016
   30        0.473   0.518   6.249   7.239
   31        0.472   0.510   6.247   7.229
   32        0.436   0.405   6.193   7.035
   33        0.463   0.369   6.185   7.017
   34        0.473   0.518   6.250   7.240
   35        0.472   0.510   6.246   7.228
   36        0.436   0.406   6.195   7.037
   37        0.464   0.368   6.184   7.016
   38        0.472   0.512   6.270   7.254
   39        0.475   0.512   6.258   7.245
   40        0.482   0.528   6.266   7.276
   41        0.463   0.368   6.185   7.017
   42        0.473   0.518   6.248   7.239
   43        0.472   0.510   6.247   7.229
   44        0.436   0.405   6.193   7.034
   45        0.465   0.367   6.185   7.017
   46        0.472   0.512   6.271   7.255
   47        0.475   0.512   6.259   7.246
   48        0.481   0.527   6.264   7.272
   49        0.464   0.368   6.191   7.023
   50        0.493   0.539   6.284   7.316
   51        0.475   0.512   6.258   7.245
   52        0.481   0.527   6.266   7.275
   53        0.463   0.368   6.186   7.018
   54        0.473   0.518   6.249   7.240
   55        0.472   0.510   6.247   7.229
   56        0.436   0.406   6.193   7.035
   57        0.464   0.368   6.191   7.023
   58        0.494   0.538   6.285   7.317
   59        0.475   0.512   6.258   7.245
   60        0.482   0.528   6.263   7.273
   61        0.463   0.369   6.185   7.018
   62        0.473   0.518   6.249   7.240
   63        0.472   0.510   6.246   7.228
   64        0.436   0.407   6.194   7.038
   65        1.575   3.362   0.000   4.937
   66        1.574   3.363   0.000   4.938
   67        1.574   3.362   0.000   4.937
   68        1.575   3.363   0.000   4.938
--------------------------------------------------
tot         36.275  43.333 398.911 478.519
 


 magnetization (x)
 
# of ion       s       p       d       tot
------------------------------------------
    1       -0.004  -0.008   2.709   2.696
    2       -0.015  -0.056   2.488   2.417
    3       -0.015  -0.056   2.506   2.436
    4       -0.011  -0.021   2.703   2.671
    5       -0.003  -0.008   2.716   2.704
    6       -0.018  -0.058   2.512   2.435
    7       -0.016  -0.057   2.472   2.399
    8       -0.004  -0.028   2.278   2.247
    9       -0.004  -0.007   2.708   2.696
   10       -0.015  -0.056   2.489   2.418
   11       -0.015  -0.056   2.507   2.436
   12       -0.011  -0.020   2.700   2.669
   13       -0.003  -0.008   2.715   2.703
   14       -0.018  -0.058   2.511   2.434
   15       -0.016  -0.057   2.472   2.399
   16       -0.004  -0.028   2.276   2.244
   17       -0.005  -0.008   2.698   2.685
   18       -0.012  -0.058   2.281   2.212
   19       -0.016  -0.057   2.473   2.400
   20       -0.004  -0.028   2.278   2.246
   21       -0.004  -0.007   2.707   2.696
   22       -0.015  -0.056   2.492   2.421
   23       -0.015  -0.055   2.507   2.436
   24       -0.011  -0.020   2.707   2.676
   25       -0.005  -0.009   2.699   2.686
   26       -0.012  -0.058   2.281   2.212
   27       -0.016  -0.057   2.471   2.398
   28       -0.004  -0.028   2.276   2.244
   29       -0.005  -0.008   2.709   2.696
   30       -0.015  -0.056   2.488   2.417
   31       -0.015  -0.055   2.505   2.434
   32       -0.011  -0.020   2.707   2.675
   33       -0.004  -0.008   2.708   2.697
   34       -0.015  -0.056   2.489   2.418
   35       -0.015  -0.055   2.507   2.436
   36       -0.011  -0.020   2.705   2.674
   37       -0.003  -0.008   2.715   2.703
   38       -0.018  -0.058   2.511   2.435
   39       -0.016  -0.057   2.473   2.399
   40       -0.004  -0.028   2.276   2.244
   41       -0.004  -0.007   2.708   2.696
   42       -0.015  -0.056   2.488   2.417
   43       -0.015  -0.055   2.506   2.435
   44       -0.011  -0.021   2.707   2.675
   45       -0.003  -0.008   2.716   2.705
   46       -0.018  -0.058   2.511   2.435
   47       -0.016  -0.057   2.472   2.399
   48       -0.004  -0.028   2.278   2.246
   49       -0.005  -0.008   2.699   2.685
   50       -0.012  -0.057   2.280   2.210
   51       -0.016  -0.057   2.471   2.398
   52       -0.004  -0.028   2.277   2.245
   53       -0.004  -0.007   2.708   2.696
   54       -0.015  -0.056   2.488   2.417
   55       -0.015  -0.056   2.505   2.435
   56       -0.011  -0.021   2.706   2.674
   57       -0.005  -0.009   2.699   2.686
   58       -0.012  -0.057   2.280   2.211
   59       -0.016  -0.057   2.473   2.400
   60       -0.004  -0.028   2.279   2.247
   61       -0.004  -0.007   2.708   2.696
   62       -0.015  -0.056   2.490   2.419
   63       -0.015  -0.056   2.508   2.437
   64       -0.011  -0.020   2.700   2.669
   65        0.004   0.033   0.000   0.037
   66        0.004   0.033   0.000   0.037
   67        0.004   0.032   0.000   0.037
   68        0.004   0.033   0.000   0.037
--------------------------------------------------
tot         -0.660  -2.197 162.082 159.225
 
 BZINTS: Fermi energy: -0.626285;536.000000 electrons
         Band energy:***********;  BLOECHL correction: -0.029179

 total amount of memory used by VASP MPI-rank0   239549. kBytes
=======================================================================

   base      :      30000. kBytes
   nonlr-proj:      13412. kBytes
   fftplans  :       6402. kBytes
   grid      :      16455. kBytes
   one-center:         93. kBytes
   wavefun   :     173187. kBytes
 
  
  
 General timing and accounting informations for this job:
 ========================================================
  
                  Total CPU time used (sec):     4347.210
                            User time (sec):     4106.433
                          System time (sec):      240.777
                         Elapsed time (sec):     4351.658
  
                   Maximum memory used (kb):      475472.
                   Average memory used (kb):           0.
  
                          Minor page faults:     71396619
                          Major page faults:           12
                 Voluntary context switches:         1488
