SQS-NiFe                                
           1
     9.929500    0.000000    0.000000
     3.309833    9.361622    0.000000
     0.000000    0.000000   21.080550
   Fe   O 
  64   4
Direct configuration=     1
   0.08738900  0.16261100  0.09487400
   0.08723758  0.16247069  0.28612732
   0.21238900  0.03761100  0.19102200
   0.21558538  0.04067454  0.38065513
   0.33738900  0.16261100  0.09487400
   0.33733252  0.16249040  0.28398560
   0.46238900  0.03761100  0.19102200
   0.47191325  0.02820072  0.37748355
   0.58738900  0.16261100  0.09487400
   0.58725708  0.16270544  0.28622518
   0.71238900  0.03761100  0.19102200
   0.71551333  0.04100289  0.38075144
   0.83738900  0.16261100  0.09487400
   0.83724125  0.16252360  0.28393063
   0.96238900  0.03761100  0.19102200
   0.97197375  0.02793043  0.37736440
   0.08738900  0.41261100  0.09487400
   0.08729703  0.41251211  0.28428335
   0.21238900  0.28761100  0.19102200
   0.20284031  0.29690137  0.37735165
   0.33738900  0.41261100  0.09487400
   0.33737152  0.41260749  0.28619692
   0.46238900  0.28761100  0.19102200
   0.45902310  0.28462103  0.38074100
   0.58738900  0.41261100  0.09487400
   0.58745238  0.41271138  0.28427978
   0.71238900  0.28761100  0.19102200
   0.70265730  0.29734870  0.37738304
   0.83738900  0.41261100  0.09487400
   0.83737133  0.41261265  0.28616748
   0.96238900  0.28761100  0.19102200
   0.95911570  0.28423859  0.38057998
   0.08738900  0.66261100  0.09487400
   0.08748813  0.66251475  0.28622697
   0.21238900  0.53761100  0.19102200
   0.21569210  0.54057434  0.38074779
   0.33738900  0.66261100  0.09487400
   0.33741622  0.66272789  0.28398604
   0.46238900  0.53761100  0.19102200
   0.47187460  0.52831212  0.37735330
   0.58738900  0.66261100  0.09487400
   0.58750901  0.66274815  0.28612464
   0.71238900  0.53761100  0.19102200
   0.71558480  0.54100605  0.38058420
   0.83738900  0.66261100  0.09487400
   0.83750092  0.66269897  0.28393063
   0.96238900  0.53761100  0.19102200
   0.97205312  0.52789329  0.37738131
   0.08738900  0.91261100  0.09487400
   0.08735398  0.91245202  0.28433170
   0.21238900  0.78761100  0.19102200
   0.20279943  0.79700992  0.37748346
   0.33738900  0.91261100  0.09487400
   0.33737112  0.91260708  0.28616030
   0.46238900  0.78761100  0.19102200
   0.45912101  0.78452154  0.38064941
   0.58738900  0.91261100  0.09487400
   0.58739136  0.91277471  0.28432883
   0.71238900  0.78761100  0.19102200
   0.70272555  0.79731493  0.37736680
   0.83738900  0.91261100  0.09487400
   0.83736831  0.91261328  0.28625252
   0.96238900  0.78761100  0.19102200
   0.95917241  0.78424726  0.38074571
   0.33693731  0.16226400  0.42619542
   0.83694807  0.16215659  0.42602807
   0.83776977  0.66306895  0.42602533
   0.33747055  0.66261882  0.42619978
