  71  71   1   0
  0.2652218E+02  0.1011163E-08  0.1011163E-08  0.2126643E-08  0.5000000E-15
  1.000000000000000E-004
  CAR 
 SQS-NiFe                                
      5.19527086    -24.45909059  301     -0.26653880      1.00000000
    -24.459  0.0000E+00  0.0000E+00  0.0000E+00  0.0000E+00
    -24.360  0.0000E+00  0.0000E+00  0.0000E+00  0.0000E+00
    -24.261  0.0000E+00  0.0000E+00  0.0000E+00  0.0000E+00
    -24.163  0.0000E+00  0.0000E+00  0.0000E+00  0.0000E+00
    -24.064 -0.2561E-28  0.0000E+00 -0.2532E-29  0.0000E+00
    -23.965 -0.5233E-25 -0.4286E-29 -0.5176E-26 -0.4237E-30
    -23.866 -0.6534E-22 -0.9787E-26 -0.6464E-23 -0.9679E-27
    -23.767 -0.4979E-19 -0.1366E-22 -0.4928E-20 -0.1351E-23
    -23.668 -0.2313E-16 -0.1163E-19 -0.2292E-17 -0.1151E-20
    -23.569 -0.6338E-14 -0.6045E-17 -0.6288E-15 -0.5986E-18
    -23.471 -0.1084E-11 -0.1857E-14 -0.1078E-12 -0.1841E-15
    -23.372 -0.1122E-09 -0.3550E-12 -0.1119E-10 -0.3527E-13
    -23.273 -0.6996E-08 -0.4115E-10 -0.7027E-09 -0.4103E-11
    -23.174 -0.2611E-06 -0.2879E-08 -0.2652E-07 -0.2887E-09
    -23.075 -0.5766E-05 -0.1208E-06 -0.5965E-06 -0.1223E-07
    -22.976 -0.7368E-04 -0.3006E-05 -0.7880E-05 -0.3094E-06
    -22.878 -0.5199E-03 -0.4358E-04 -0.5927E-04 -0.4617E-05
    -22.779 -0.1767E-02 -0.3539E-03 -0.2339E-03 -0.3960E-04
    -22.680 -0.9868E-03 -0.1453E-02 -0.3315E-03 -0.1832E-03
    -22.581  0.1109E-01 -0.1769E-02  0.7652E-03 -0.3580E-03
    -22.482  0.3346E-01  0.6994E-02  0.4072E-02  0.3334E-03
    -22.383  0.4020E-01  0.2866E-01  0.8046E-02  0.3166E-02
    -22.284  0.2145E-01  0.4130E-01  0.1017E-01  0.7249E-02
    -22.186  0.2700E-02  0.2677E-01  0.1043E-01  0.9895E-02
    -22.087 -0.2117E-02  0.5694E-02  0.1022E-01  0.1046E-01
    -21.988 -0.1024E-02 -0.1931E-02  0.1012E-01  0.1027E-01
    -21.889 -0.1983E-03 -0.1335E-02  0.1010E-01  0.1013E-01
    -21.790 -0.2030E-04 -0.3050E-03  0.1010E-01  0.1010E-01
    -21.691 -0.1182E-05 -0.3572E-04  0.1010E-01  0.1010E-01
    -21.593 -0.4038E-07 -0.2354E-05  0.1010E-01  0.1010E-01
    -21.494 -0.8217E-09 -0.9054E-07  0.1010E-01  0.1010E-01
    -21.395 -0.1005E-10 -0.2069E-08  0.1010E-01  0.1010E-01
    -21.296 -0.7425E-13 -0.2836E-10  0.1010E-01  0.1010E-01
    -21.197 -0.3404E-15 -0.2347E-12  0.1010E-01  0.1010E-01
    -21.098 -0.7065E-21 -0.1180E-14  0.1010E-01  0.1010E-01
    -20.999 -0.4528E-18 -0.2553E-23  0.1010E-01  0.1010E-01
    -20.901 -0.1712E-15 -0.2446E-20  0.1010E-01  0.1010E-01
    -20.802 -0.4064E-13 -0.1430E-17  0.1010E-01  0.1010E-01
    -20.703 -0.5830E-11 -0.4922E-15  0.1010E-01  0.1010E-01
    -20.604 -0.5057E-09 -0.1065E-12  0.1010E-01  0.1010E-01
    -20.505 -0.2638E-07 -0.1391E-10  0.1010E-01  0.1010E-01
    -20.406 -0.8216E-06 -0.1098E-08  0.1010E-01  0.1010E-01
    -20.307 -0.1506E-04 -0.5206E-07  0.1010E-01  0.1010E-01
    -20.209 -0.1585E-03 -0.1469E-05  0.1008E-01  0.1010E-01
    -20.110 -0.9052E-03 -0.2429E-04  0.9994E-02  0.1010E-01
    -20.011 -0.2343E-02 -0.2280E-03  0.9763E-02  0.1008E-01
    -19.912  0.2767E-03 -0.1127E-02  0.9790E-02  0.9964E-02
    -19.813  0.1629E-01 -0.2217E-02  0.1140E-01  0.9745E-02
    -19.714  0.4150E-01  0.2686E-02  0.1550E-01  0.1001E-01
    -19.616  0.5735E-01  0.2013E-01  0.2117E-01  0.1200E-01
    -19.517  0.5989E-01  0.3838E-01  0.2709E-01  0.1579E-01
    -19.418  0.5769E-01  0.4854E-01  0.3279E-01  0.2059E-01
    -19.319  0.5480E-01  0.6594E-01  0.3821E-01  0.2711E-01
    -19.220  0.5246E-01  0.7606E-01  0.4340E-01  0.3463E-01
    -19.121  0.4538E-01  0.5768E-01  0.4788E-01  0.4033E-01
    -19.022  0.2548E-01  0.4168E-01  0.5040E-01  0.4445E-01
    -18.924  0.5021E-02  0.3799E-01  0.5090E-01  0.4821E-01
    -18.825 -0.2158E-02  0.2276E-01  0.5068E-01  0.5046E-01
    -18.726 -0.1438E-02  0.4153E-02  0.5054E-01  0.5087E-01
    -18.627 -0.3354E-03 -0.2101E-02  0.5051E-01  0.5066E-01
    -18.528 -0.5453E-04 -0.1256E-02  0.5050E-01  0.5054E-01
    -18.429 -0.1547E-03 -0.2797E-03  0.5049E-01  0.5051E-01
    -18.331 -0.8606E-03 -0.1130E-03  0.5040E-01  0.5050E-01
    -18.232 -0.2092E-02 -0.5644E-03  0.5020E-01  0.5044E-01
    -18.133  0.1334E-02 -0.1829E-02  0.5033E-01  0.5026E-01
    -18.034  0.1836E-01 -0.7421E-03  0.5214E-01  0.5019E-01
    -17.935  0.3886E-01  0.1208E-01  0.5598E-01  0.5138E-01
    -17.836  0.3588E-01  0.3439E-01  0.5953E-01  0.5478E-01
    -17.737  0.1381E-01  0.3976E-01  0.6090E-01  0.5871E-01
    -17.639 -0.2589E-03  0.2029E-01  0.6087E-01  0.6072E-01
    -17.540 -0.1926E-02  0.2160E-02  0.6068E-01  0.6093E-01
    -17.441 -0.6400E-03 -0.2117E-02  0.6062E-01  0.6072E-01
    -17.342 -0.9872E-04 -0.9618E-03  0.6061E-01  0.6063E-01
    -17.243 -0.8323E-05 -0.1799E-03  0.6061E-01  0.6061E-01
    -17.144 -0.4045E-06 -0.1789E-04  0.6061E-01  0.6061E-01
    -17.046 -0.1160E-07 -0.1015E-05  0.6061E-01  0.6061E-01
    -16.947 -0.1989E-09 -0.3379E-07  0.6061E-01  0.6061E-01
    -16.848 -0.2054E-11 -0.6705E-09  0.6061E-01  0.6061E-01
    -16.749 -0.1284E-13 -0.7999E-11  0.6061E-01  0.6061E-01
    -16.650 -0.4538E-16 -0.5768E-13  0.6061E-01  0.6061E-01
    -16.551  0.0000E+00 -0.2496E-15  0.6061E-01  0.6061E-01
    -16.452  0.0000E+00  0.0000E+00  0.6061E-01  0.6061E-01
    -16.354  0.0000E+00  0.0000E+00  0.6061E-01  0.6061E-01
    -16.255  0.0000E+00  0.0000E+00  0.6061E-01  0.6061E-01
    -16.156  0.0000E+00  0.0000E+00  0.6061E-01  0.6061E-01
    -16.057  0.0000E+00  0.0000E+00  0.6061E-01  0.6061E-01
    -15.958  0.0000E+00  0.0000E+00  0.6061E-01  0.6061E-01
    -15.859  0.0000E+00  0.0000E+00  0.6061E-01  0.6061E-01
    -15.760  0.0000E+00  0.0000E+00  0.6061E-01  0.6061E-01
    -15.662  0.0000E+00  0.0000E+00  0.6061E-01  0.6061E-01
    -15.563  0.0000E+00  0.0000E+00  0.6061E-01  0.6061E-01
    -15.464  0.0000E+00  0.0000E+00  0.6061E-01  0.6061E-01
    -15.365  0.0000E+00  0.0000E+00  0.6061E-01  0.6061E-01
    -15.266  0.0000E+00  0.0000E+00  0.6061E-01  0.6061E-01
    -15.167  0.0000E+00  0.0000E+00  0.6061E-01  0.6061E-01
    -15.069  0.0000E+00  0.0000E+00  0.6061E-01  0.6061E-01
    -14.970  0.0000E+00  0.0000E+00  0.6061E-01  0.6061E-01
    -14.871  0.0000E+00  0.0000E+00  0.6061E-01  0.6061E-01
    -14.772  0.0000E+00  0.0000E+00  0.6061E-01  0.6061E-01
    -14.673  0.0000E+00  0.0000E+00  0.6061E-01  0.6061E-01
    -14.574  0.0000E+00  0.0000E+00  0.6061E-01  0.6061E-01
    -14.475  0.0000E+00  0.0000E+00  0.6061E-01  0.6061E-01
    -14.377  0.0000E+00  0.0000E+00  0.6061E-01  0.6061E-01
    -14.278  0.0000E+00  0.0000E+00  0.6061E-01  0.6061E-01
    -14.179  0.0000E+00  0.0000E+00  0.6061E-01  0.6061E-01
    -14.080  0.0000E+00  0.0000E+00  0.6061E-01  0.6061E-01
    -13.981  0.0000E+00  0.0000E+00  0.6061E-01  0.6061E-01
    -13.882  0.0000E+00  0.0000E+00  0.6061E-01  0.6061E-01
    -13.784  0.0000E+00  0.0000E+00  0.6061E-01  0.6061E-01
    -13.685  0.0000E+00  0.0000E+00  0.6061E-01  0.6061E-01
    -13.586  0.0000E+00  0.0000E+00  0.6061E-01  0.6061E-01
    -13.487  0.0000E+00  0.0000E+00  0.6061E-01  0.6061E-01
    -13.388  0.0000E+00  0.0000E+00  0.6061E-01  0.6061E-01
    -13.289  0.0000E+00  0.0000E+00  0.6061E-01  0.6061E-01
    -13.190  0.0000E+00  0.0000E+00  0.6061E-01  0.6061E-01
    -13.092  0.0000E+00  0.0000E+00  0.6061E-01  0.6061E-01
    -12.993  0.0000E+00  0.0000E+00  0.6061E-01  0.6061E-01
    -12.894  0.0000E+00  0.0000E+00  0.6061E-01  0.6061E-01
    -12.795  0.0000E+00  0.0000E+00  0.6061E-01  0.6061E-01
    -12.696  0.0000E+00  0.0000E+00  0.6061E-01  0.6061E-01
    -12.597  0.0000E+00  0.0000E+00  0.6061E-01  0.6061E-01
    -12.498  0.0000E+00  0.0000E+00  0.6061E-01  0.6061E-01
    -12.400  0.0000E+00  0.0000E+00  0.6061E-01  0.6061E-01
    -12.301  0.0000E+00  0.0000E+00  0.6061E-01  0.6061E-01
    -12.202  0.0000E+00  0.0000E+00  0.6061E-01  0.6061E-01
    -12.103  0.0000E+00  0.0000E+00  0.6061E-01  0.6061E-01
    -12.004  0.0000E+00  0.0000E+00  0.6061E-01  0.6061E-01
    -11.905  0.0000E+00  0.0000E+00  0.6061E-01  0.6061E-01
    -11.807  0.0000E+00  0.0000E+00  0.6061E-01  0.6061E-01
    -11.708  0.0000E+00  0.0000E+00  0.6061E-01  0.6061E-01
    -11.609  0.0000E+00  0.0000E+00  0.6061E-01  0.6061E-01
    -11.510  0.0000E+00  0.0000E+00  0.6061E-01  0.6061E-01
    -11.411  0.0000E+00  0.0000E+00  0.6061E-01  0.6061E-01
    -11.312  0.0000E+00  0.0000E+00  0.6061E-01  0.6061E-01
    -11.213  0.0000E+00  0.0000E+00  0.6061E-01  0.6061E-01
    -11.115  0.0000E+00  0.0000E+00  0.6061E-01  0.6061E-01
    -11.016  0.0000E+00  0.0000E+00  0.6061E-01  0.6061E-01
    -10.917  0.0000E+00  0.0000E+00  0.6061E-01  0.6061E-01
    -10.818  0.0000E+00  0.0000E+00  0.6061E-01  0.6061E-01
    -10.719  0.0000E+00  0.0000E+00  0.6061E-01  0.6061E-01
    -10.620  0.0000E+00  0.0000E+00  0.6061E-01  0.6061E-01
    -10.522  0.0000E+00  0.0000E+00  0.6061E-01  0.6061E-01
    -10.423 -0.1520E-29  0.0000E+00  0.6061E-01  0.6061E-01
    -10.324 -0.3655E-26 -0.3177E-30  0.6061E-01  0.6061E-01
    -10.225 -0.5381E-23 -0.8373E-27  0.6061E-01  0.6061E-01
    -10.126 -0.4844E-20 -0.1352E-23  0.6061E-01  0.6061E-01
    -10.027 -0.2665E-17 -0.1336E-20  0.6061E-01  0.6061E-01
     -9.928 -0.8692E-15 -0.8069E-18  0.6061E-01  0.6061E-01
     -9.830 -0.1766E-12 -0.2903E-15  0.6061E-01  0.6061E-01
     -9.731 -0.2181E-10 -0.6472E-13  0.6061E-01  0.6061E-01
     -9.632 -0.1629E-08 -0.8803E-11  0.6061E-01  0.6061E-01
     -9.533 -0.7314E-07 -0.7250E-09  0.6061E-01  0.6061E-01
     -9.434 -0.1955E-05 -0.3596E-07  0.6061E-01  0.6061E-01
     -9.335 -0.3058E-04 -0.1065E-05  0.6060E-01  0.6061E-01
     -9.237 -0.2704E-03 -0.1853E-04  0.6058E-01  0.6060E-01
     -9.138 -0.1239E-02 -0.1842E-03  0.6045E-01  0.6059E-01
     -9.039 -0.2013E-02 -0.9734E-03  0.6025E-01  0.6049E-01
     -8.940  0.4697E-02 -0.2111E-02  0.6072E-01  0.6028E-01
     -8.841  0.2499E-01  0.2229E-02  0.6319E-01  0.6050E-01
     -8.742  0.4068E-01  0.2026E-01  0.6721E-01  0.6250E-01
     -8.643  0.3001E-01  0.3935E-01  0.7018E-01  0.6639E-01
     -8.545  0.1001E-01  0.3419E-01  0.7117E-01  0.6977E-01
     -8.446  0.6675E-02  0.1423E-01  0.7183E-01  0.7118E-01
     -8.347  0.1898E-01  0.8668E-02  0.7370E-01  0.7204E-01
     -8.248  0.2711E-01  0.2013E-01  0.7638E-01  0.7403E-01
     -8.149  0.1788E-01  0.2674E-01  0.7815E-01  0.7667E-01
     -8.050  0.6422E-02  0.1624E-01  0.7878E-01  0.7828E-01
     -7.951  0.1061E-01  0.5723E-02  0.7983E-01  0.7884E-01
     -7.853  0.2391E-01  0.1070E-01  0.8220E-01  0.7990E-01
     -7.754  0.3367E-01  0.2331E-01  0.8552E-01  0.8220E-01
     -7.655  0.3516E-01  0.3259E-01  0.8900E-01  0.8542E-01
     -7.556  0.2391E-01  0.3488E-01  0.9136E-01  0.8887E-01
     -7.457  0.5398E-02  0.2505E-01  0.9190E-01  0.9135E-01
     -7.358 -0.3848E-02  0.7445E-02  0.9152E-01  0.9209E-01
     -7.260  0.1139E-01 -0.4078E-02  0.9264E-01  0.9168E-01
     -7.161  0.5728E-01 -0.7074E-03  0.9830E-01  0.9161E-01
     -7.062  0.1020E+00  0.2746E-01  0.1084E+00  0.9433E-01
     -6.963  0.9972E-01  0.7383E-01  0.1182E+00  0.1016E+00
     -6.864  0.6545E-01  0.9837E-01  0.1247E+00  0.1113E+00
     -6.765  0.4990E-01  0.8191E-01  0.1297E+00  0.1194E+00
     -6.666  0.6510E-01  0.5442E-01  0.1361E+00  0.1248E+00
     -6.568  0.8925E-01  0.4348E-01  0.1449E+00  0.1291E+00
     -6.469  0.1030E+00  0.4627E-01  0.1551E+00  0.1337E+00
     -6.370  0.1074E+00  0.5147E-01  0.1657E+00  0.1388E+00
     -6.271  0.1257E+00  0.5914E-01  0.1781E+00  0.1446E+00
     -6.172  0.1637E+00  0.7335E-01  0.1943E+00  0.1519E+00
     -6.073  0.1931E+00  0.8847E-01  0.2134E+00  0.1606E+00
     -5.975  0.1968E+00  0.9597E-01  0.2329E+00  0.1701E+00
     -5.876  0.1888E+00  0.9897E-01  0.2515E+00  0.1799E+00
     -5.777  0.1808E+00  0.1077E+00  0.2694E+00  0.1905E+00
     -5.678  0.1610E+00  0.1330E+00  0.2853E+00  0.2037E+00
     -5.579  0.1323E+00  0.1812E+00  0.2984E+00  0.2216E+00
     -5.480  0.1117E+00  0.2234E+00  0.3094E+00  0.2437E+00
     -5.381  0.9839E-01  0.2210E+00  0.3192E+00  0.2655E+00
     -5.283  0.1102E+00  0.1834E+00  0.3301E+00  0.2837E+00
     -5.184  0.1793E+00  0.1385E+00  0.3478E+00  0.2974E+00
     -5.085  0.2685E+00  0.1015E+00  0.3743E+00  0.3074E+00
     -4.986  0.3124E+00  0.8817E-01  0.4052E+00  0.3161E+00
     -4.887  0.3136E+00  0.1132E+00  0.4362E+00  0.3273E+00
     -4.788  0.3103E+00  0.1602E+00  0.4669E+00  0.3431E+00
     -4.690  0.3282E+00  0.1933E+00  0.4993E+00  0.3622E+00
     -4.591  0.3735E+00  0.2141E+00  0.5363E+00  0.3834E+00
     -4.492  0.4374E+00  0.2384E+00  0.5795E+00  0.4070E+00
     -4.393  0.5115E+00  0.2569E+00  0.6301E+00  0.4324E+00
     -4.294  0.5731E+00  0.2488E+00  0.6867E+00  0.4569E+00
     -4.195  0.5929E+00  0.2224E+00  0.7453E+00  0.4789E+00
     -4.096  0.5758E+00  0.2207E+00  0.8022E+00  0.5007E+00
     -3.998  0.5617E+00  0.2529E+00  0.8578E+00  0.5257E+00
     -3.899  0.5577E+00  0.2848E+00  0.9129E+00  0.5539E+00
     -3.800  0.5346E+00  0.3049E+00  0.9657E+00  0.5840E+00
     -3.701  0.5114E+00  0.3205E+00  0.1016E+01  0.6157E+00
     -3.602  0.5326E+00  0.3321E+00  0.1069E+01  0.6485E+00
     -3.503  0.5844E+00  0.3450E+00  0.1127E+01  0.6826E+00
     -3.404  0.6091E+00  0.3608E+00  0.1187E+01  0.7183E+00
     -3.306  0.5913E+00  0.3692E+00  0.1245E+01  0.7548E+00
     -3.207  0.5758E+00  0.3732E+00  0.1302E+01  0.7917E+00
     -3.108  0.6057E+00  0.3903E+00  0.1362E+01  0.8303E+00
     -3.009  0.6849E+00  0.4095E+00  0.1430E+01  0.8708E+00
     -2.910  0.7860E+00  0.4168E+00  0.1508E+01  0.9119E+00
     -2.811  0.8729E+00  0.4328E+00  0.1594E+01  0.9547E+00
     -2.713  0.9205E+00  0.4613E+00  0.1685E+01  0.1000E+01
     -2.614  0.9321E+00  0.4832E+00  0.1777E+01  0.1048E+01
     -2.515  0.9383E+00  0.4990E+00  0.1870E+01  0.1097E+01
     -2.416  0.9351E+00  0.5200E+00  0.1962E+01  0.1149E+01
     -2.317  0.8811E+00  0.5363E+00  0.2049E+01  0.1202E+01
     -2.218  0.8048E+00  0.5360E+00  0.2129E+01  0.1255E+01
     -2.119  0.7796E+00  0.5287E+00  0.2206E+01  0.1307E+01
     -2.021  0.7984E+00  0.5317E+00  0.2285E+01  0.1360E+01
     -1.922  0.8159E+00  0.5552E+00  0.2365E+01  0.1415E+01
     -1.823  0.8269E+00  0.5871E+00  0.2447E+01  0.1473E+01
     -1.724  0.8340E+00  0.6070E+00  0.2530E+01  0.1533E+01
     -1.625  0.8287E+00  0.6191E+00  0.2611E+01  0.1594E+01
     -1.526  0.8127E+00  0.6416E+00  0.2692E+01  0.1657E+01
     -1.428  0.7945E+00  0.6754E+00  0.2770E+01  0.1724E+01
     -1.329  0.7766E+00  0.7031E+00  0.2847E+01  0.1793E+01
     -1.230  0.7635E+00  0.7019E+00  0.2923E+01  0.1863E+01
     -1.131  0.7536E+00  0.6691E+00  0.2997E+01  0.1929E+01
     -1.032  0.7269E+00  0.6318E+00  0.3069E+01  0.1991E+01
     -0.933  0.6728E+00  0.6103E+00  0.3135E+01  0.2052E+01
     -0.834  0.6020E+00  0.5996E+00  0.3195E+01  0.2111E+01
     -0.736  0.5348E+00  0.5951E+00  0.3248E+01  0.2170E+01
     -0.637  0.4877E+00  0.5991E+00  0.3296E+01  0.2229E+01
     -0.538  0.4477E+00  0.5964E+00  0.3340E+01  0.2288E+01
     -0.439  0.3901E+00  0.5692E+00  0.3379E+01  0.2344E+01
     -0.340  0.3291E+00  0.5319E+00  0.3411E+01  0.2397E+01
     -0.241  0.3007E+00  0.5215E+00  0.3441E+01  0.2448E+01
     -0.143  0.3043E+00  0.5433E+00  0.3471E+01  0.2502E+01
     -0.044  0.3137E+00  0.5621E+00  0.3502E+01  0.2558E+01
      0.055  0.3170E+00  0.5576E+00  0.3533E+01  0.2613E+01
      0.154  0.3184E+00  0.5464E+00  0.3565E+01  0.2667E+01
      0.253  0.3130E+00  0.5436E+00  0.3596E+01  0.2721E+01
      0.352  0.2900E+00  0.5485E+00  0.3625E+01  0.2775E+01
      0.451  0.2527E+00  0.5603E+00  0.3650E+01  0.2830E+01
      0.549  0.2134E+00  0.5781E+00  0.3671E+01  0.2887E+01
      0.648  0.1844E+00  0.6033E+00  0.3689E+01  0.2947E+01
      0.747  0.1638E+00  0.6378E+00  0.3705E+01  0.3010E+01
      0.846  0.1413E+00  0.6717E+00  0.3719E+01  0.3076E+01
      0.945  0.1286E+00  0.6926E+00  0.3732E+01  0.3145E+01
      1.044  0.1349E+00  0.7053E+00  0.3745E+01  0.3215E+01
      1.143  0.1353E+00  0.7200E+00  0.3758E+01  0.3286E+01
      1.241  0.1163E+00  0.7290E+00  0.3770E+01  0.3358E+01
      1.340  0.9757E-01  0.7203E+00  0.3780E+01  0.3429E+01
      1.439  0.9072E-01  0.6842E+00  0.3789E+01  0.3497E+01
      1.538  0.8738E-01  0.6037E+00  0.3797E+01  0.3556E+01
      1.637  0.9519E-01  0.4929E+00  0.3807E+01  0.3605E+01
      1.736  0.1285E+00  0.3982E+00  0.3819E+01  0.3644E+01
      1.834  0.1526E+00  0.3223E+00  0.3834E+01  0.3676E+01
      1.933  0.1305E+00  0.2397E+00  0.3847E+01  0.3700E+01
      2.032  0.9971E-01  0.1759E+00  0.3857E+01  0.3717E+01
      2.131  0.9510E-01  0.1555E+00  0.3867E+01  0.3733E+01
      2.230  0.8202E-01  0.1535E+00  0.3875E+01  0.3748E+01
      2.329  0.4148E-01  0.1497E+00  0.3879E+01  0.3763E+01
      2.428  0.6738E-02  0.1493E+00  0.3879E+01  0.3777E+01
      2.526 -0.3649E-02  0.1517E+00  0.3879E+01  0.3792E+01
      2.625 -0.2289E-02  0.1500E+00  0.3879E+01  0.3807E+01
      2.724 -0.5575E-03  0.1466E+00  0.3879E+01  0.3822E+01
      2.823 -0.7335E-04  0.1466E+00  0.3879E+01  0.3836E+01
      2.922 -0.5611E-05  0.1491E+00  0.3879E+01  0.3851E+01
      3.021 -0.2562E-06  0.1364E+00  0.3879E+01  0.3864E+01
      3.119 -0.7061E-08  0.9510E-01  0.3879E+01  0.3874E+01
      3.218 -0.1181E-09  0.4463E-01  0.3879E+01  0.3878E+01
      3.317 -0.1203E-11  0.1093E-01  0.3879E+01  0.3879E+01
      3.416 -0.7478E-14 -0.1463E-02  0.3879E+01  0.3879E+01
      3.515 -0.2521E-16 -0.2369E-02  0.3879E+01  0.3879E+01
      3.614  0.0000E+00 -0.9153E-03  0.3879E+01  0.3879E+01
      3.713  0.0000E+00 -0.1866E-03  0.3879E+01  0.3879E+01
      3.811  0.0000E+00 -0.2207E-04  0.3879E+01  0.3879E+01
      3.910  0.0000E+00 -0.1556E-05  0.3879E+01  0.3879E+01
      4.009  0.0000E+00 -0.6609E-07  0.3879E+01  0.3879E+01
      4.108  0.0000E+00 -0.1698E-08  0.3879E+01  0.3879E+01
      4.207  0.0000E+00 -0.2649E-10  0.3879E+01  0.3879E+01
      4.306  0.0000E+00 -0.2513E-12  0.3879E+01  0.3879E+01
      4.404  0.0000E+00 -0.1455E-14  0.3879E+01  0.3879E+01
      4.503  0.0000E+00 -0.5042E-17  0.3879E+01  0.3879E+01
      4.602  0.0000E+00  0.0000E+00  0.3879E+01  0.3879E+01
      4.701  0.0000E+00  0.0000E+00  0.3879E+01  0.3879E+01
      4.800  0.0000E+00  0.0000E+00  0.3879E+01  0.3879E+01
      4.899  0.0000E+00  0.0000E+00  0.3879E+01  0.3879E+01
      4.998  0.0000E+00  0.0000E+00  0.3879E+01  0.3879E+01
      5.096  0.0000E+00  0.0000E+00  0.3879E+01  0.3879E+01
      5.195  0.0000E+00  0.0000E+00  0.3879E+01  0.3879E+01
      5.19527086    -24.45909059  301     -0.26653880      1.00000000
    -24.459  0.0000E+00  0.0000E+00  0.0000E+00  0.0000E+00  0.0000E+00  0.0000E+00
    -24.360  0.0000E+00  0.0000E+00  0.0000E+00  0.0000E+00  0.0000E+00  0.0000E+00
    -24.261  0.0000E+00  0.0000E+00  0.0000E+00  0.0000E+00  0.0000E+00  0.0000E+00
    -24.163  0.0000E+00  0.0000E+00  0.0000E+00  0.0000E+00  0.0000E+00  0.0000E+00
    -24.064 -0.3931E-39  0.0000E+00 -0.1229E-39  0.0000E+00 -0.1852E-37  0.0000E+00
    -23.965 -0.8031E-36 -0.6870E-40 -0.2512E-36 -0.2089E-40 -0.3784E-34 -0.3172E-38
    -23.866 -0.1003E-32 -0.1569E-36 -0.3136E-33 -0.4770E-37 -0.4725E-31 -0.7243E-35
    -23.767 -0.7640E-30 -0.2189E-33 -0.2389E-30 -0.6656E-34 -0.3600E-28 -0.1011E-31
    -23.668 -0.3550E-27 -0.1865E-30 -0.1110E-27 -0.5670E-31 -0.1673E-25 -0.8609E-29
    -23.569 -0.9726E-25 -0.9689E-28 -0.3042E-25 -0.2946E-28 -0.4583E-23 -0.4473E-26
    -23.471 -0.1663E-22 -0.2976E-25 -0.5201E-23 -0.9050E-26 -0.7837E-21 -0.1374E-23
    -23.372 -0.1721E-20 -0.5689E-23 -0.5383E-21 -0.1730E-23 -0.8110E-19 -0.2627E-21
    -23.273 -0.1073E-18 -0.6596E-21 -0.3358E-19 -0.2006E-21 -0.5059E-17 -0.3045E-19
    -23.174 -0.4007E-17 -0.4614E-19 -0.1253E-17 -0.1403E-19 -0.1888E-15 -0.2130E-17
    -23.075 -0.8848E-16 -0.1936E-17 -0.2767E-16 -0.5886E-18 -0.4169E-14 -0.8936E-16
    -22.976 -0.1131E-14 -0.4818E-16 -0.3536E-15 -0.1465E-16 -0.5328E-13 -0.2224E-14
    -22.878 -0.7977E-14 -0.6984E-15 -0.2495E-14 -0.2124E-15 -0.3759E-12 -0.3225E-13
    -22.779 -0.2711E-13 -0.5672E-14 -0.8481E-14 -0.1725E-14 -0.1278E-11 -0.2619E-12
    -22.680 -0.1514E-13 -0.2328E-13 -0.4737E-14 -0.7080E-14 -0.7135E-12 -0.1075E-11
    -22.581  0.1702E-12 -0.2835E-13  0.5325E-13 -0.8621E-14  0.8023E-11 -0.1309E-11
    -22.482  0.5133E-12  0.1121E-12  0.1606E-12  0.3409E-13  0.2419E-10  0.5176E-11
    -22.383  0.6169E-12  0.4593E-12  0.1930E-12  0.1397E-12  0.2907E-10  0.2121E-10
    -22.284  0.3291E-12  0.6619E-12  0.1029E-12  0.2013E-12  0.1551E-10  0.3056E-10
    -22.186  0.4142E-13  0.4290E-12  0.1296E-13  0.1305E-12  0.1952E-11  0.1981E-10
    -22.087 -0.3248E-13  0.9126E-13 -0.1016E-13  0.2776E-13 -0.1531E-11  0.4214E-11
    -21.988 -0.1572E-13 -0.3095E-13 -0.4917E-14 -0.9412E-14 -0.7407E-12 -0.1429E-11
    -21.889 -0.3043E-14 -0.2139E-13 -0.9519E-15 -0.6505E-14 -0.1434E-12 -0.9875E-12
    -21.790 -0.3114E-15 -0.4887E-14 -0.9743E-16 -0.1487E-14 -0.1468E-13 -0.2257E-12
    -21.691 -0.1814E-16 -0.5724E-15 -0.5675E-17 -0.1741E-15 -0.8548E-15 -0.2643E-13
    -21.593 -0.6196E-18 -0.3772E-16 -0.1938E-18 -0.1147E-16 -0.2920E-16 -0.1742E-14
    -21.494 -0.1261E-19 -0.1451E-17 -0.3945E-20 -0.4414E-18 -0.5942E-18 -0.6700E-16
    -21.395 -0.1542E-21 -0.3315E-19 -0.4824E-22 -0.1009E-19 -0.7266E-20 -0.1531E-17
    -21.296 -0.1139E-23 -0.4545E-21 -0.3564E-24 -0.1383E-21 -0.5369E-22 -0.2099E-19
    -21.197 -0.5222E-26 -0.3761E-23 -0.1634E-26 -0.1144E-23 -0.2461E-24 -0.1737E-21
    -21.098 -0.7720E-30 -0.1891E-25 -0.7629E-30 -0.5751E-26 -0.4846E-30 -0.8731E-24
    -20.999 -0.4948E-27 -0.3055E-32 -0.4889E-27 -0.3019E-32 -0.3106E-27 -0.1719E-32
    -20.901 -0.1871E-24 -0.2926E-29 -0.1849E-24 -0.2892E-29 -0.1174E-24 -0.1647E-29
    -20.802 -0.4441E-22 -0.1710E-26 -0.4388E-22 -0.1690E-26 -0.2787E-22 -0.9623E-27
    -20.703 -0.6371E-20 -0.5888E-24 -0.6295E-20 -0.5819E-24 -0.3999E-20 -0.3313E-24
    -20.604 -0.5525E-18 -0.1274E-21 -0.5460E-18 -0.1259E-21 -0.3468E-18 -0.7169E-22
    -20.505 -0.2883E-16 -0.1665E-19 -0.2848E-16 -0.1645E-19 -0.1810E-16 -0.9367E-20
    -20.406 -0.8972E-15 -0.1314E-17 -0.8865E-15 -0.1298E-17 -0.5633E-15 -0.7393E-18
    -20.307 -0.1643E-13 -0.6228E-16 -0.1623E-13 -0.6154E-16 -0.1032E-13 -0.3505E-16
    -20.209 -0.1724E-12 -0.1757E-14 -0.1702E-12 -0.1737E-14 -0.1084E-12 -0.9889E-15
    -20.110 -0.9753E-12 -0.2905E-13 -0.9626E-12 -0.2870E-13 -0.6155E-12 -0.1635E-13
    -20.011 -0.2434E-11 -0.2725E-12 -0.2394E-11 -0.2693E-12 -0.1558E-11 -0.1534E-12
    -19.912  0.8838E-12 -0.1345E-11  0.9316E-12 -0.1328E-11  0.4215E-12 -0.7573E-12
    -19.813  0.1861E-10 -0.2607E-11  0.1854E-10 -0.2567E-11  0.1152E-10 -0.1473E-11
    -19.714  0.4200E-10  0.3453E-11  0.4161E-10  0.3483E-11  0.2729E-10  0.1921E-11
    -19.616  0.4836E-10  0.2447E-10  0.4713E-10  0.2447E-10  0.3386E-10  0.1380E-10
    -19.517  0.4922E-10  0.4442E-10  0.4576E-10  0.4430E-10  0.3392E-10  0.2544E-10
    -19.418  0.7026E-10  0.5162E-10  0.6299E-10  0.4983E-10  0.3951E-10  0.2985E-10
    -19.319  0.9178E-10  0.7305E-10  0.8174E-10  0.6661E-10  0.4692E-10  0.4001E-10
    -19.220  0.8754E-10  0.9752E-10  0.7786E-10  0.8727E-10  0.4844E-10  0.5001E-10
    -19.121  0.6508E-10  0.8543E-10  0.5780E-10  0.7624E-10  0.4137E-10  0.4301E-10
    -19.022  0.3296E-10  0.6597E-10  0.2924E-10  0.5869E-10  0.2285E-10  0.3605E-10
    -18.924  0.5872E-11  0.5778E-10  0.5202E-11  0.5130E-10  0.4456E-11  0.3415E-10
    -18.825 -0.3052E-11  0.3372E-10 -0.2712E-11  0.2993E-10 -0.1934E-11  0.2027E-10
    -18.726 -0.1930E-11  0.6058E-11 -0.1714E-11  0.5375E-11 -0.1284E-11  0.3695E-11
    -18.627 -0.4454E-12 -0.3139E-11 -0.3955E-12 -0.2790E-11 -0.2989E-12 -0.1831E-11
    -18.528 -0.5378E-13 -0.1866E-11 -0.4770E-13 -0.1658E-11 -0.4327E-13 -0.1098E-11
    -18.429 -0.8925E-14 -0.4056E-12 -0.7323E-14 -0.3603E-12 -0.8140E-13 -0.2422E-12
    -18.331 -0.3031E-13 -0.4882E-13 -0.2350E-13 -0.4305E-13 -0.4472E-12 -0.6907E-13
    -18.232 -0.7334E-13 -0.2402E-13 -0.5683E-13 -0.1912E-13 -0.1087E-11 -0.2898E-12
    -18.133  0.4677E-13 -0.6876E-13  0.3624E-13 -0.5386E-13  0.6932E-12 -0.9370E-12
    -18.034  0.6437E-12 -0.2786E-13  0.4988E-12 -0.2182E-13  0.9540E-11 -0.3801E-12
    -17.935  0.1362E-11  0.4533E-12  0.1056E-11  0.3550E-12  0.2019E-10  0.6186E-11
    -17.836  0.1258E-11  0.1291E-11  0.9747E-12  0.1011E-11  0.1864E-10  0.1762E-10
    -17.737  0.4842E-12  0.1492E-11  0.3752E-12  0.1169E-11  0.7176E-11  0.2037E-10
    -17.639 -0.9076E-14  0.7617E-12 -0.7034E-14  0.5965E-12 -0.1345E-12  0.1039E-10
    -17.540 -0.6752E-13  0.8109E-13 -0.5232E-13  0.6350E-13 -0.1001E-11  0.1107E-11
    -17.441 -0.2244E-13 -0.7946E-13 -0.1739E-13 -0.6223E-13 -0.3325E-12 -0.1084E-11
    -17.342 -0.3461E-14 -0.3610E-13 -0.2682E-14 -0.2827E-13 -0.5129E-13 -0.4926E-12
    -17.243 -0.2918E-15 -0.6752E-14 -0.2261E-15 -0.5288E-14 -0.4325E-14 -0.9214E-13
    -17.144 -0.1418E-16 -0.6716E-15 -0.1099E-16 -0.5259E-15 -0.2102E-15 -0.9165E-14
    -17.046 -0.4067E-18 -0.3809E-16 -0.3152E-18 -0.2983E-16 -0.6028E-17 -0.5197E-15
    -16.947 -0.6973E-20 -0.1268E-17 -0.5403E-20 -0.9931E-18 -0.1033E-18 -0.1731E-16
    -16.848 -0.7200E-22 -0.2517E-19 -0.5579E-22 -0.1971E-19 -0.1067E-20 -0.3434E-18
    -16.749 -0.4502E-24 -0.3003E-21 -0.3489E-24 -0.2351E-21 -0.6673E-23 -0.4097E-20
    -16.650 -0.1591E-26 -0.2165E-23 -0.1233E-26 -0.1695E-23 -0.2358E-25 -0.2954E-22
    -16.551  0.0000E+00 -0.9368E-26  0.0000E+00 -0.7337E-26  0.0000E+00 -0.1278E-24
    -16.452  0.0000E+00  0.0000E+00  0.0000E+00  0.0000E+00  0.0000E+00  0.0000E+00
    -16.354  0.0000E+00  0.0000E+00  0.0000E+00  0.0000E+00  0.0000E+00  0.0000E+00
    -16.255  0.0000E+00  0.0000E+00  0.0000E+00  0.0000E+00  0.0000E+00  0.0000E+00
    -16.156  0.0000E+00  0.0000E+00  0.0000E+00  0.0000E+00  0.0000E+00  0.0000E+00
    -16.057  0.0000E+00  0.0000E+00  0.0000E+00  0.0000E+00  0.0000E+00  0.0000E+00
    -15.958  0.0000E+00  0.0000E+00  0.0000E+00  0.0000E+00  0.0000E+00  0.0000E+00
    -15.859  0.0000E+00  0.0000E+00  0.0000E+00  0.0000E+00  0.0000E+00  0.0000E+00
    -15.760  0.0000E+00  0.0000E+00  0.0000E+00  0.0000E+00  0.0000E+00  0.0000E+00
    -15.662  0.0000E+00  0.0000E+00  0.0000E+00  0.0000E+00  0.0000E+00  0.0000E+00
    -15.563  0.0000E+00  0.0000E+00  0.0000E+00  0.0000E+00  0.0000E+00  0.0000E+00
    -15.464  0.0000E+00  0.0000E+00  0.0000E+00  0.0000E+00  0.0000E+00  0.0000E+00
    -15.365  0.0000E+00  0.0000E+00  0.0000E+00  0.0000E+00  0.0000E+00  0.0000E+00
    -15.266  0.0000E+00  0.0000E+00  0.0000E+00  0.0000E+00  0.0000E+00  0.0000E+00
    -15.167  0.0000E+00  0.0000E+00  0.0000E+00  0.0000E+00  0.0000E+00  0.0000E+00
    -15.069  0.0000E+00  0.0000E+00  0.0000E+00  0.0000E+00  0.0000E+00  0.0000E+00
    -14.970  0.0000E+00  0.0000E+00  0.0000E+00  0.0000E+00  0.0000E+00  0.0000E+00
    -14.871  0.0000E+00  0.0000E+00  0.0000E+00  0.0000E+00  0.0000E+00  0.0000E+00
    -14.772  0.0000E+00  0.0000E+00  0.0000E+00  0.0000E+00  0.0000E+00  0.0000E+00
    -14.673  0.0000E+00  0.0000E+00  0.0000E+00  0.0000E+00  0.0000E+00  0.0000E+00
    -14.574  0.0000E+00  0.0000E+00  0.0000E+00  0.0000E+00  0.0000E+00  0.0000E+00
    -14.475  0.0000E+00  0.0000E+00  0.0000E+00  0.0000E+00  0.0000E+00  0.0000E+00
    -14.377  0.0000E+00  0.0000E+00  0.0000E+00  0.0000E+00  0.0000E+00  0.0000E+00
    -14.278  0.0000E+00  0.0000E+00  0.0000E+00  0.0000E+00  0.0000E+00  0.0000E+00
    -14.179  0.0000E+00  0.0000E+00  0.0000E+00  0.0000E+00  0.0000E+00  0.0000E+00
    -14.080  0.0000E+00  0.0000E+00  0.0000E+00  0.0000E+00  0.0000E+00  0.0000E+00
    -13.981  0.0000E+00  0.0000E+00  0.0000E+00  0.0000E+00  0.0000E+00  0.0000E+00
    -13.882  0.0000E+00  0.0000E+00  0.0000E+00  0.0000E+00  0.0000E+00  0.0000E+00
    -13.784  0.0000E+00  0.0000E+00  0.0000E+00  0.0000E+00  0.0000E+00  0.0000E+00
    -13.685  0.0000E+00  0.0000E+00  0.0000E+00  0.0000E+00  0.0000E+00  0.0000E+00
    -13.586  0.0000E+00  0.0000E+00  0.0000E+00  0.0000E+00  0.0000E+00  0.0000E+00
    -13.487  0.0000E+00  0.0000E+00  0.0000E+00  0.0000E+00  0.0000E+00  0.0000E+00
    -13.388  0.0000E+00  0.0000E+00  0.0000E+00  0.0000E+00  0.0000E+00  0.0000E+00
    -13.289  0.0000E+00  0.0000E+00  0.0000E+00  0.0000E+00  0.0000E+00  0.0000E+00
    -13.190  0.0000E+00  0.0000E+00  0.0000E+00  0.0000E+00  0.0000E+00  0.0000E+00
    -13.092  0.0000E+00  0.0000E+00  0.0000E+00  0.0000E+00  0.0000E+00  0.0000E+00
    -12.993  0.0000E+00  0.0000E+00  0.0000E+00  0.0000E+00  0.0000E+00  0.0000E+00
    -12.894  0.0000E+00  0.0000E+00  0.0000E+00  0.0000E+00  0.0000E+00  0.0000E+00
    -12.795  0.0000E+00  0.0000E+00  0.0000E+00  0.0000E+00  0.0000E+00  0.0000E+00
    -12.696  0.0000E+00  0.0000E+00  0.0000E+00  0.0000E+00  0.0000E+00  0.0000E+00
    -12.597  0.0000E+00  0.0000E+00  0.0000E+00  0.0000E+00  0.0000E+00  0.0000E+00
    -12.498  0.0000E+00  0.0000E+00  0.0000E+00  0.0000E+00  0.0000E+00  0.0000E+00
    -12.400  0.0000E+00  0.0000E+00  0.0000E+00  0.0000E+00  0.0000E+00  0.0000E+00
    -12.301  0.0000E+00  0.0000E+00  0.0000E+00  0.0000E+00  0.0000E+00  0.0000E+00
    -12.202  0.0000E+00  0.0000E+00  0.0000E+00  0.0000E+00  0.0000E+00  0.0000E+00
    -12.103  0.0000E+00  0.0000E+00  0.0000E+00  0.0000E+00  0.0000E+00  0.0000E+00
    -12.004  0.0000E+00  0.0000E+00  0.0000E+00  0.0000E+00  0.0000E+00  0.0000E+00
    -11.905  0.0000E+00  0.0000E+00  0.0000E+00  0.0000E+00  0.0000E+00  0.0000E+00
    -11.807  0.0000E+00  0.0000E+00  0.0000E+00  0.0000E+00  0.0000E+00  0.0000E+00
    -11.708  0.0000E+00  0.0000E+00  0.0000E+00  0.0000E+00  0.0000E+00  0.0000E+00
    -11.609  0.0000E+00  0.0000E+00  0.0000E+00  0.0000E+00  0.0000E+00  0.0000E+00
    -11.510  0.0000E+00  0.0000E+00  0.0000E+00  0.0000E+00  0.0000E+00  0.0000E+00
    -11.411  0.0000E+00  0.0000E+00  0.0000E+00  0.0000E+00  0.0000E+00  0.0000E+00
    -11.312  0.0000E+00  0.0000E+00  0.0000E+00  0.0000E+00  0.0000E+00  0.0000E+00
    -11.213  0.0000E+00  0.0000E+00  0.0000E+00  0.0000E+00  0.0000E+00  0.0000E+00
    -11.115  0.0000E+00  0.0000E+00  0.0000E+00  0.0000E+00  0.0000E+00  0.0000E+00
    -11.016  0.0000E+00  0.0000E+00  0.0000E+00  0.0000E+00  0.0000E+00  0.0000E+00
    -10.917  0.0000E+00  0.0000E+00  0.0000E+00  0.0000E+00  0.0000E+00  0.0000E+00