       N       E                     dE             d eps       ncg     rms          rms(c)
DAV:   1    -0.486868902783E+03   -0.48687E+03   -0.15972E+03  8070   0.488E+01    0.821E+00
RMM:   2    -0.499503153885E+03   -0.12634E+02   -0.12497E+02  7824   0.252E+01    0.117E+01
RMM:   3    -0.501638592570E+03   -0.21354E+01   -0.17113E+01  8389   0.600E+00    0.164E+01
RMM:   4    -0.500803454257E+03    0.83514E+00   -0.29274E+00  8257   0.296E+00    0.817E+00
RMM:   5    -0.500844721161E+03   -0.41267E-01   -0.93568E-01  8605   0.145E+00    0.785E+00
RMM:   6    -0.500741975045E+03    0.10275E+00   -0.51788E-01  7962   0.145E+00    0.728E+00
RMM:   7    -0.500538892530E+03    0.20308E+00   -0.21511E-01  7883   0.111E+00    0.290E+00
RMM:   8    -0.500530877789E+03    0.80147E-02   -0.65720E-02  7997   0.477E-01    0.234E+00
RMM:   9    -0.500535522885E+03   -0.46451E-02   -0.26592E-02  8018   0.311E-01    0.221E+00
RMM:  10    -0.500530106125E+03    0.54168E-02   -0.10941E-02  7893   0.229E-01    0.172E+00
RMM:  11    -0.500530516151E+03   -0.41003E-03   -0.63339E-03  7917   0.169E-01    0.160E+00
RMM:  12    -0.500526345595E+03    0.41706E-02   -0.65472E-03  7865   0.191E-01    0.117E+00
RMM:  13    -0.500524584384E+03    0.17612E-02   -0.33333E-03  7831   0.133E-01    0.967E-01
RMM:  14    -0.500522805562E+03    0.17788E-02   -0.30817E-03  7809   0.130E-01    0.757E-01
RMM:  15    -0.500521670981E+03    0.11346E-02   -0.13348E-03  7800   0.855E-02    0.557E-01
RMM:  16    -0.500523063429E+03   -0.13924E-02   -0.18019E-03  7838   0.979E-02    0.586E-01
RMM:  17    -0.500524781836E+03   -0.17184E-02   -0.16942E-03  7777   0.981E-02    0.424E-01
RMM:  18    -0.500525942860E+03   -0.11610E-02   -0.56131E-04  8081   0.465E-02    0.379E-01
RMM:  19    -0.500529064675E+03   -0.31218E-02   -0.31259E-04  7861   0.334E-02    0.366E-01
RMM:  20    -0.500529410403E+03   -0.34573E-03   -0.58881E-05  6216   0.945E-03    0.360E-01
RMM:  21    -0.500523601469E+03    0.58089E-02   -0.72847E-04  7665   0.639E-02    0.447E-01
RMM:  22    -0.500516234885E+03    0.73666E-02   -0.84384E-04  7692   0.680E-02    0.284E-01
RMM:  23    -0.500511573702E+03    0.46612E-02   -0.68420E-04  7712   0.542E-02    0.301E-01
RMM:  24    -0.500502265692E+03    0.93080E-02   -0.10382E-03  7710   0.613E-02    0.263E-01
RMM:  25    -0.500500332912E+03    0.19328E-02   -0.39792E-04  8180   0.345E-02    0.259E-01
RMM:  26    -0.500498283156E+03    0.20498E-02   -0.73632E-04  7635   0.552E-02    0.278E-01
RMM:  27    -0.500498490934E+03   -0.20778E-03   -0.49057E-04  7746   0.437E-02    0.243E-01
RMM:  28    -0.500507540098E+03   -0.90492E-02   -0.67187E-04  7669   0.521E-02    0.268E-01
RMM:  29    -0.500517856485E+03   -0.10316E-01   -0.69117E-04  7713   0.488E-02    0.185E-01
RMM:  30    -0.500525834414E+03   -0.79779E-02   -0.53648E-04  7749   0.399E-02    0.191E-01
RMM:  31    -0.500541283939E+03   -0.15450E-01   -0.13318E-03  7700   0.458E-02    0.118E-01
RMM:  32    -0.500545066289E+03   -0.37824E-02   -0.40701E-04  7853   0.310E-02    0.114E-01
RMM:  33    -0.500553381593E+03   -0.83153E-02   -0.92860E-04  7633   0.314E-02    0.978E-02
RMM:  34    -0.500555194457E+03   -0.18129E-02   -0.23517E-04  7629   0.220E-02    0.941E-02
RMM:  35    -0.500558656705E+03   -0.34622E-02   -0.47629E-04  7669   0.255E-02    0.744E-02
RMM:  36    -0.500559407187E+03   -0.75048E-03   -0.13325E-04  7169   0.170E-02    0.760E-02
RMM:  37    -0.500560241536E+03   -0.83435E-03   -0.11028E-04  6683   0.132E-02    0.584E-02
RMM:  38    -0.500560443758E+03   -0.20222E-03   -0.32563E-05  5211   0.101E-02    0.483E-02
RMM:  39    -0.500560771392E+03   -0.32763E-03   -0.48688E-05  5373   0.992E-03    0.287E-02
RMM:  40    -0.500560856604E+03   -0.85212E-04   -0.14836E-05  4758   0.788E-03    0.214E-02
RMM:  41    -0.500561042573E+03   -0.18597E-03   -0.17336E-05  4822   0.624E-03    0.174E-02
RMM:  42    -0.500561107288E+03   -0.64715E-04   -0.64017E-06  4298   0.534E-03    0.145E-02
RMM:  43    -0.500561242282E+03   -0.13499E-03   -0.96308E-06  4610   0.407E-03    0.148E-02
RMM:  44    -0.500561300228E+03   -0.57946E-04   -0.39696E-06  4135   0.372E-03    0.144E-02
RMM:  45    -0.500561410182E+03   -0.10995E-03   -0.77488E-06  4583   0.338E-03    0.104E-02
RMM:  46    -0.500561442196E+03   -0.32013E-04   -0.22916E-06  3962   0.289E-03    0.840E-03
RMM:  47    -0.500561483624E+03   -0.41428E-04   -0.26351E-06  4101   0.273E-03    0.738E-03
RMM:  48    -0.500561502789E+03   -0.19165E-04   -0.17064E-06  3978   0.261E-03    0.727E-03
RMM:  49    -0.500561514150E+03   -0.11360E-04   -0.11952E-06  3672   0.203E-03    0.601E-03
RMM:  50    -0.500561527841E+03   -0.13692E-04   -0.16909E-06  3905   0.203E-03    0.245E-02
RMM:  51    -0.500561533925E+03   -0.60843E-05   -0.87612E-07  3262   0.171E-03
   1 F= -.51548096E+03 E0= -.51550282E+03  d E =-.515481E+03  mag=    98.8439
