 vasp.5.4.4.18Apr17-6-g9f103f2a35 (build Dec 15 2018 21:27:11) complex          
  
 executed on             LinuxIFC date 2022.03.05  20:44:32
 running on   72 total cores
 distrk:  each k-point on   72 cores,    1 groups
 distr:  one band on NCORES_PER_BAND=  24 cores,    3 groups


--------------------------------------------------------------------------------------------------------


 INCAR:
 POTCAR:    PAW_PBE Fe 06Sep2000                  
 POTCAR:    PAW_PBE Ni 02Aug2007                  
 POTCAR:    PAW_PBE O 08Apr2002                   
 POTCAR:    PAW_PBE H 15Jun2001                   

 ----------------------------------------------------------------------------- 
|                                                                             |
|           W    W    AA    RRRRR   N    N  II  N    N   GGGG   !!!           |
|           W    W   A  A   R    R  NN   N  II  NN   N  G    G  !!!           |
|           W    W  A    A  R    R  N N  N  II  N N  N  G       !!!           |
|           W WW W  AAAAAA  RRRRR   N  N N  II  N  N N  G  GGG   !            |
|           WW  WW  A    A  R   R   N   NN  II  N   NN  G    G                |
|           W    W  A    A  R    R  N    N  II  N    N   GGGG   !!!           |
|                                                                             |
|      For optimal performance we recommend to set                            |
|        NCORE= 4 - approx SQRT( number of cores)                             |
|      NCORE specifies how many cores store one orbital (NPAR=cpu/NCORE).     |
|      This setting can  greatly improve the performance of VASP for DFT.     |
|      The default,   NCORE=1            might be grossly inefficient         |
|      on modern multi-core architectures or massively parallel machines.     |
|      Do your own testing !!!!                                               |
|      Unfortunately you need to use the default for GW and RPA calculations. |
|      (for HF NCORE is supported but not extensively tested yet)             |
|                                                                             |
 ----------------------------------------------------------------------------- 

 POTCAR:    PAW_PBE Fe 06Sep2000                  
   VRHFIN =Fe:  d7 s1                                                           
   LEXCH  = PE                                                                  
   EATOM  =   594.3153 eV,   43.6809 Ry                                         
                                                                                
   TITEL  = PAW_PBE Fe 06Sep2000                                                
   LULTRA =        F    use ultrasoft PP ?                                      
   IUNSCR =        1    unscreen: 0-lin 1-nonlin 2-no                           
   RPACOR =    2.000    partial core radius                                     
   POMASS =   55.847; ZVAL   =    8.000    mass and valenz                      
   RCORE  =    2.300    outmost cutoff radius                                   
   RWIGS  =    2.460; RWIGS  =    1.302    wigner-seitz radius (au A)           
   ENMAX  =  267.882; ENMIN  =  200.911 eV                                      
   RCLOC  =    1.701    cutoff for local pot                                    
   LCOR   =        T    correct aug charges                                     
   LPAW   =        T    paw PP                                                  
   EAUG   =  511.368                                                            
   DEXC   =    0.000                                                            
   RMAX   =    2.356    core radius for proj-oper                               
   RAUG   =    1.300    factor for augmentation sphere                          
   RDEP   =    2.442    radius for radial grids                                 
   RDEPT  =    1.890    core radius for aug-charge                              
                                                                                
   Atomic configuration                                                         
    9 entries                                                                   
     n  l   j            E        occ.                                          
     1  0  0.50     -6993.8440   2.0000                                         
     2  0  0.50      -814.6047   2.0000                                         
     2  1  1.50      -693.3689   6.0000                                         
     3  0  0.50       -89.4732   2.0000                                         
     3  1  1.50       -55.6373   6.0000                                         
     3  2  2.50        -3.8151   7.0000                                         
     4  0  0.50        -4.2551   1.0000                                         
     4  1  1.50        -3.4015   0.0000                                         
     4  3  2.50        -1.3606   0.0000                                         
   Description                                                                  
     l       E           TYP  RCUT    TYP  RCUT                                 
     2     -3.8151135     23  2.300                                             
     2     -5.1756961     23  2.300                                             
     0     -4.2550963     23  2.300                                             
     0      7.2035603     23  2.300                                             
     1     -2.7211652     23  2.300                                             
     1     18.4316424     23  2.300                                             
  local pseudopotential read in
  partial core-charges read in
  partial kinetic energy density read in
  atomic valenz-charges read in
  non local Contribution for L=           2  read in
    real space projection operators read in
  non local Contribution for L=           2  read in
    real space projection operators read in
  non local Contribution for L=           0  read in
    real space projection operators read in
  non local Contribution for L=           0  read in
    real space projection operators read in
  non local Contribution for L=           1  read in
    real space projection operators read in
  non local Contribution for L=           1  read in
    real space projection operators read in
    PAW grid and wavefunctions read in
 
   number of l-projection  operators is LMAX  =           6
   number of lm-projection operators is LMMAX =          18
 
 POTCAR:    PAW_PBE Ni 02Aug2007                  
   VRHFIN =Ni:                                                                  
   LEXCH  = PE                                                                  
   EATOM  =  1077.6739 eV,   79.2068 Ry                                         
                                                                                
   TITEL  = PAW_PBE Ni 02Aug2007                                                
   LULTRA =        F    use ultrasoft PP ?                                      
   IUNSCR =        1    unscreen: 0-lin 1-nonlin 2-no                           
   RPACOR =    2.000    partial core radius                                     
   POMASS =   58.690; ZVAL   =   10.000    mass and valenz                      
   RCORE  =    2.300    outmost cutoff radius                                   
   RWIGS  =    2.430; RWIGS  =    1.286    wigner-seitz radius (au A)           
   ENMAX  =  269.532; ENMIN  =  202.149 eV                                      
   RCLOC  =    1.201    cutoff for local pot                                    
   LCOR   =        T    correct aug charges                                     
   LPAW   =        T    paw PP                                                  
   EAUG   =  544.565                                                            
   DEXC   =    0.000                                                            
   RMAX   =    2.357    core radius for proj-oper                               
   RAUG   =    1.300    factor for augmentation sphere                          
   RDEP   =    2.390    radius for radial grids                                 
   RDEPT  =    1.838    core radius for aug-charge                              
                                                                                
   Atomic configuration                                                         
    9 entries                                                                   
     n  l   j            E        occ.                                          
     1  0  0.50     -8206.4253   2.0000                                         
     2  0  0.50      -976.1748   2.0000                                         
     2  1  1.50      -839.0571   6.0000                                         
     3  0  0.50      -105.9991   2.0000                                         
     3  1  1.50       -66.4603   6.0000                                         
     3  2  2.50        -4.6458   9.0000                                         
     4  0  0.50        -4.4926   1.0000                                         
     4  1  1.50        -4.0817   0.0000                                         
     4  3  2.50        -1.3606   0.0000                                         
   Description                                                                  
     l       E           TYP  RCUT    TYP  RCUT                                 
     2     -4.6457903     23  2.300                                             
     2     -6.0063729     23  2.300                                             
     0     -4.4925590     23  2.300                                             
     0      5.0102601     23  2.300                                             
     1     -2.7211652     23  2.300                                             
     1     16.5183231     23  2.300                                             
  local pseudopotential read in
  partial core-charges read in
  partial kinetic energy density read in
  atomic valenz-charges read in
  non local Contribution for L=           2  read in
    real space projection operators read in
  non local Contribution for L=           2  read in
    real space projection operators read in
  non local Contribution for L=           0  read in
    real space projection operators read in
  non local Contribution for L=           0  read in
    real space projection operators read in
  non local Contribution for L=           1  read in
    real space projection operators read in
  non local Contribution for L=           1  read in
    real space projection operators read in
    PAW grid and wavefunctions read in
 
   number of l-projection  operators is LMAX  =           6
   number of lm-projection operators is LMMAX =          18
 
 POTCAR:    PAW_PBE O 08Apr2002                   
   VRHFIN =O: s2p4                                                              
   LEXCH  = PE                                                                  
   EATOM  =   432.3788 eV,   31.7789 Ry                                         
                                                                                
   TITEL  = PAW_PBE O 08Apr2002                                                 
   LULTRA =        F    use ultrasoft PP ?                                      
   IUNSCR =        1    unscreen: 0-lin 1-nonlin 2-no                           
   RPACOR =    1.200    partial core radius                                     
   POMASS =   16.000; ZVAL   =    6.000    mass and valenz                      
   RCORE  =    1.520    outmost cutoff radius                                   
   RWIGS  =    1.550; RWIGS  =    0.820    wigner-seitz radius (au A)           
   ENMAX  =  400.000; ENMIN  =  300.000 eV                                      
   ICORE  =        2    local potential                                         
   LCOR   =        T    correct aug charges                                     
   LPAW   =        T    paw PP                                                  
   EAUG   =  605.392                                                            
   DEXC   =    0.000                                                            
   RMAX   =    1.553    core radius for proj-oper                               
   RAUG   =    1.300    factor for augmentation sphere                          
   RDEP   =    1.550    radius for radial grids                                 
   RDEPT  =    1.329    core radius for aug-charge                              
                                                                                
   Atomic configuration                                                         
    4 entries                                                                   
     n  l   j            E        occ.                                          
     1  0  0.50      -514.6923   2.0000                                         
     2  0  0.50       -23.9615   2.0000                                         
     2  1  0.50        -9.0305   4.0000                                         
     3  2  1.50        -9.5241   0.0000                                         
   Description                                                                  
     l       E           TYP  RCUT    TYP  RCUT                                 
     0    -23.9615318     23  1.200                                             
     0     -9.5240782     23  1.200                                             
     1     -9.0304911     23  1.520                                             
     1      8.1634956     23  1.520                                             
     2     -9.5240782      7  1.500                                             
  local pseudopotential read in
  partial core-charges read in
  partial kinetic energy density read in
  kinetic energy density of atom read in
  atomic valenz-charges read in
  non local Contribution for L=           0  read in
    real space projection operators read in
  non local Contribution for L=           0  read in
    real space projection operators read in
  non local Contribution for L=           1  read in
    real space projection operators read in
  non local Contribution for L=           1  read in
    real space projection operators read in
    PAW grid and wavefunctions read in
 
   number of l-projection  operators is LMAX  =           4
   number of lm-projection operators is LMMAX =           8
 
 POTCAR:    PAW_PBE H 15Jun2001                   
   VRHFIN =H: ultrasoft test                                                    
   LEXCH  = PE                                                                  
   EATOM  =    12.4884 eV,    0.9179 Ry                                         
                                                                                
   TITEL  = PAW_PBE H 15Jun2001                                                 
   LULTRA =        F    use ultrasoft PP ?                                      
   IUNSCR =        0    unscreen: 0-lin 1-nonlin 2-no                           
   RPACOR =    0.000    partial core radius                                     
   POMASS =    1.000; ZVAL   =    1.000    mass and valenz                      
   RCORE  =    1.100    outmost cutoff radius                                   
   RWIGS  =    0.700; RWIGS  =    0.370    wigner-seitz radius (au A)           
   ENMAX  =  250.000; ENMIN  =  200.000 eV                                      
   RCLOC  =    0.701    cutoff for local pot                                    
   LCOR   =        T    correct aug charges                                     
   LPAW   =        T    paw PP                                                  
   EAUG   =  400.000                                                            
   RMAX   =    1.123    core radius for proj-oper                               
   RAUG   =    1.200    factor for augmentation sphere                          
   RDEP   =    1.112    radius for radial grids                                 
   RDEPT  =    0.926    core radius for aug-charge                              
                                                                                
   Atomic configuration                                                         
    2 entries                                                                   
     n  l   j            E        occ.                                          
     1  0  0.50        -6.4927   1.0000                                         
     2  1  0.50        -3.4015   0.0000                                         
   Description                                                                  
     l       E           TYP  RCUT    TYP  RCUT                                 
     0     -6.4927494     23  1.100                                             
     0      6.8029130     23  1.100                                             
     1     -4.0817478     23  1.100                                             
  local pseudopotential read in
  atomic valenz-charges read in
  non local Contribution for L=           0  read in
    real space projection operators read in
  non local Contribution for L=           0  read in
    real space projection operators read in
  non local Contribution for L=           1  read in
    real space projection operators read in
    PAW grid and wavefunctions read in
 
   number of l-projection  operators is LMAX  =           3
   number of lm-projection operators is LMMAX =           5
 
 Optimization of the real space projectors (new method)

 maximal supplied QI-value         = 16.25
 optimisation between [QCUT,QGAM] = [ 11.54, 23.24] = [ 37.28,151.24] Ry 
 Optimized for a Real-space Cutoff    1.53 Angstroem

   l    n(q)    QCUT    max X(q) W(low)/X(q) W(high)/X(q)  e(spline) 
   2     10    11.539    80.901    0.11E-03    0.14E-03    0.21E-06
   2     10    11.539    75.754    0.11E-03    0.14E-03    0.22E-06
   0     11    11.539    58.752    0.52E-04    0.18E-04    0.33E-06
   0     11    11.539    30.679    0.44E-04    0.16E-04    0.30E-06
   1     10    11.539    17.977    0.53E-04    0.29E-04    0.13E-06
   1     10    11.539    13.559    0.44E-04    0.25E-04    0.11E-06
 Optimization of the real space projectors (new method)

 maximal supplied QI-value         = 16.25
 optimisation between [QCUT,QGAM] = [ 11.54, 23.24] = [ 37.28,151.24] Ry 
 Optimized for a Real-space Cutoff    1.45 Angstroem

   l    n(q)    QCUT    max X(q) W(low)/X(q) W(high)/X(q)  e(spline) 
   2      9    11.539    60.317    0.19E-03    0.47E-04    0.16E-06
   2      9    11.539    55.921    0.19E-03    0.48E-04    0.16E-06
   0     10    11.539    51.690    0.80E-04    0.50E-04    0.24E-06
   0     10    11.539    30.015    0.73E-04    0.45E-04    0.22E-06
   1     10    11.539    18.849    0.87E-04    0.16E-03    0.71E-07
   1     10    11.539    14.624    0.73E-04    0.13E-03    0.64E-07
 Optimization of the real space projectors (new method)

 maximal supplied QI-value         = 24.76
 optimisation between [QCUT,QGAM] = [ 11.64, 23.27] = [ 37.91,151.63] Ry 
 Optimized for a Real-space Cutoff    1.14 Angstroem

   l    n(q)    QCUT    max X(q) W(low)/X(q) W(high)/X(q)  e(spline) 
   0      8    11.635    20.381    0.10E-03    0.33E-03    0.24E-06
   0      8    11.635    15.268    0.11E-03    0.35E-03    0.26E-06
   1      7    11.635     5.964    0.24E-03    0.31E-03    0.30E-06
   1      7    11.635     5.382    0.22E-03    0.25E-03    0.26E-06
 Optimization of the real space projectors (new method)

 maximal supplied QI-value         = 34.20
 optimisation between [QCUT,QGAM] = [ 11.63, 23.26] = [ 37.87,151.49] Ry 
 Optimized for a Real-space Cutoff    1.21 Angstroem

   l    n(q)    QCUT    max X(q) W(low)/X(q) W(high)/X(q)  e(spline) 
   0      8    11.629    19.460    0.17E-03    0.34E-03    0.21E-06
   0      8    11.629    12.209    0.16E-03    0.33E-03    0.21E-06
   1      8    11.629     4.655    0.18E-03    0.16E-03    0.26E-06
  PAW_PBE Fe 06Sep2000                  :
 energy of atom  1       EATOM= -594.3153
 kinetic energy error for atom=    0.0026 (will be added to EATOM!!)
  PAW_PBE Ni 02Aug2007                  :
 energy of atom  2       EATOM=-1077.6739
 kinetic energy error for atom=    0.0030 (will be added to EATOM!!)
  PAW_PBE O 08Apr2002                   :
 energy of atom  3       EATOM= -432.3788
 kinetic energy error for atom=    0.0208 (will be added to EATOM!!)
  PAW_PBE H 15Jun2001                   :
 energy of atom  4       EATOM=  -12.4884
 kinetic energy error for atom=    0.0014 (will be added to EATOM!!)
 
 
 POSCAR: POSCAR                                  
  positions in direct lattice
  velocities in cartesian coordinates
 exchange correlation table for  LEXCH =        8
   RHO(1)=    0.500       N(1)  =     2000
   RHO(2)=  100.500       N(2)  =     4000

 VTST: version 3.2, (02/03/18)

 CHAIN: initializing optimizer
 
 OPT: Using VASP Conjugate-Gradient optimizer
 CHAIN: Read ICHAIN            0
 
 POSCAR: POSCAR                                  
  positions in direct lattice
  velocities in cartesian coordinates
 


--------------------------------------------------------------------------------------------------------


 ion  position               nearest neighbor table
   1  0.002  0.999  0.097-   9 2.45  29 2.50  49 2.51  64 2.51  44 2.53   7 2.53  51 2.54  38 2.55
                             5 2.60
   2  0.996  0.995  0.380-  11 2.46   6 2.48  57 2.48  48 2.49  39 2.50   8 2.50  30 2.52  52 2.54
                            50 2.58
   3  0.499  0.996  0.096-   5 2.47  62 2.50  34 2.52  31 2.52  49 2.53  45 2.55  55 2.55  12 2.56
                            53 2.58
   4  0.500  0.991  0.378-  15 2.39  63 2.43  13 2.44  35 2.50  32 2.51   6 2.52  50 2.55  54 2.57
                            56 2.58
   5  0.743  0.996  0.094-   3 2.47  34 2.47  62 2.52  38 2.53  55 2.54  64 2.58  14 2.58  51 2.59
                             1 2.60
   6  0.753  0.998  0.386-  68 1.82  39 2.47   2 2.48  56 2.52   4 2.52  35 2.54  47 2.54  15 2.55
                            52 2.57  57 2.58
   7  0.249  0.253  0.097-  22 2.43   9 2.44  51 2.49  18 2.52  20 2.53   1 2.53  53 2.54  10 2.55
                            49 2.58
   8  0.245  0.241  0.382-  66 1.79  11 2.46  52 2.46  19 2.50   2 2.50  59 2.51  26 2.52  54 2.53
                            50 2.55  21 2.56
   9  0.089  0.161  0.191-  10 2.41   7 2.44   1 2.45  44 2.47  11 2.49  57 2.52  51 2.52  59 2.53
                            64 2.54  22 2.55  58 2.62  14 2.68
  10  0.330  0.166  0.195-  26 2.41   9 2.41  11 2.44  22 2.48  45 2.48  44 2.49  13 2.50   7 2.55
                            12 2.57  49 2.58  53 2.59  25 2.59
  11  0.165  0.078  0.287-  10 2.44  44 2.45   8 2.46   2 2.46   9 2.49  13 2.49  48 2.51  57 2.52
                            46 2.53  26 2.54  59 2.56  50 2.58
  12  0.583  0.166  0.194-  14 2.45  15 2.49  27 2.50  13 2.52  62 2.52  45 2.54  28 2.54  55 2.55
                             3 2.56  10 2.57  53 2.58  25 2.58
  13  0.413  0.081  0.290-   4 2.44  11 2.49  10 2.50  45 2.51  50 2.51  26 2.52  12 2.52  54 2.53
                            46 2.54  15 2.57  63 2.57  28 2.58
  14  0.827  0.167  0.193-  60 2.44  12 2.45  15 2.47  57 2.50  62 2.51  55 2.51  27 2.53  58 2.56
                            51 2.56   5 2.58  64 2.59   9 2.68
  15  0.666  0.081  0.289-   4 2.39  14 2.47  12 2.49  56 2.51  62 2.51  60 2.52  47 2.52  57 2.54
                             6 2.55  28 2.55  63 2.56  13 2.57
  16  0.003  0.511  0.095-  31 2.44  29 2.45  23 2.48  33 2.51  58 2.57  18 2.58  27 2.59  55 2.60
                            51 2.63
  17  0.004  0.502  0.375-  37 2.38  60 2.42  43 2.49  32 2.49  30 2.52  19 2.53  52 2.55  56 2.56
                            24 2.56
  18  0.256  0.506  0.097-  36 2.40  31 2.45  34 2.47  22 2.47  20 2.48   7 2.52  58 2.53  51 2.58
                            16 2.58
  19  0.247  0.489  0.385-  67 1.86  52 2.41  59 2.50   8 2.50  21 2.53  17 2.53  61 2.57  37 2.59
                            35 2.59  32 2.60
  20  0.500  0.503  0.098-  22 2.41  40 2.43  34 2.48  18 2.48  38 2.50  25 2.53   7 2.53  53 2.54
                            23 2.58
  21  0.498  0.494  0.375-  26 2.38  61 2.42  42 2.43  19 2.53  35 2.53  54 2.55  24 2.55   8 2.56
                            39 2.57
  22  0.339  0.416  0.189-  20 2.41   7 2.43  40 2.46  18 2.47  25 2.48  26 2.48  10 2.48  61 2.51
                            36 2.53   9 2.55  59 2.56  58 2.60
  23  0.757  0.508  0.096-  29 2.40  41 2.46  16 2.48  27 2.48  38 2.48  25 2.56  55 2.57  20 2.58
                            53 2.60
  24  0.749  0.494  0.390-  65 1.88  69 1.94  28 2.51  56 2.52  21 2.55  54 2.56  17 2.56  30 2.59
                            39 2.61  42 2.63  43 2.75
  25  0.586  0.422  0.194-  42 2.42  40 2.45  41 2.46  27 2.46  26 2.47  22 2.48  20 2.53  28 2.55
                            23 2.56  53 2.58  12 2.58  10 2.59
  26  0.413  0.331  0.286-  21 2.38  10 2.41  25 2.47  22 2.48  59 2.50   8 2.52  13 2.52  61 2.52
                            11 2.54  28 2.57  42 2.59  54 2.66
  27  0.827  0.417  0.192-  43 2.41  41 2.45  25 2.46  23 2.48  60 2.50  12 2.50  55 2.51  28 2.53
                            14 2.53  58 2.59  16 2.59  33 2.60
  28  0.669  0.335  0.292-  56 2.49  60 2.49  42 2.50  24 2.51  27 2.53  12 2.54  43 2.54  15 2.55
                            25 2.55  26 2.57  13 2.58  54 2.58
  29  0.992  0.747  0.096-  23 2.40  16 2.45  38 2.48  41 2.50   1 2.50  33 2.54  44 2.56  49 2.57
                            31 2.63
  30  0.003  0.750  0.384-  65 1.85  46 2.44  50 2.46  32 2.50   2 2.52  17 2.52  48 2.55  24 2.59
                            39 2.59  43 2.61
  31  0.251  0.746  0.097-  16 2.44  36 2.44  18 2.45  33 2.49  34 2.52   3 2.52  45 2.55  49 2.56
                            29 2.63
  32  0.249  0.747  0.387-  67 1.87  50 2.47  17 2.49  30 2.50   4 2.51  46 2.53  35 2.57  63 2.59
                            19 2.60  37 2.61
  33  0.086  0.671  0.192-  43 2.40  45 2.48  44 2.48  46 2.49  31 2.49  37 2.49  16 2.51  36 2.52
                            41 2.52  29 2.54  58 2.55  27 2.60
  34  0.502  0.749  0.098-  18 2.47   5 2.47  40 2.48  36 2.48  20 2.48  62 2.49  38 2.49  31 2.52
                             3 2.52
  35  0.503  0.746  0.385-  67 1.87  39 2.45  47 2.49   4 2.50  21 2.53   6 2.54  61 2.55  32 2.57
                            63 2.58  19 2.59
  36  0.330  0.661  0.190-  18 2.40  31 2.44  34 2.48  37 2.48  58 2.49  61 2.49  63 2.50  33 2.52
                            22 2.53  40 2.53  62 2.56  45 2.62
  37  0.168  0.581  0.286-  17 2.38  58 2.45  36 2.48  63 2.49  61 2.49  33 2.49  59 2.51  46 2.51
                            60 2.55  43 2.55  19 2.59  32 2.61
  38  0.748  0.749  0.094-  29 2.48  23 2.48  34 2.49  20 2.50   5 2.53  40 2.54  64 2.55   1 2.55
                            41 2.58
  39  0.747  0.751  0.387-  65 1.84  35 2.45   6 2.47   2 2.50  47 2.52  21 2.57  42 2.58  30 2.59
                            24 2.61  48 2.61
  40  0.580  0.661  0.192-  20 2.43  25 2.45  22 2.46  61 2.47  34 2.48  42 2.52  36 2.53  38 2.54
                            41 2.54  47 2.54  62 2.56  64 2.57
  41  0.832  0.662  0.193-  43 2.35  42 2.43  48 2.45  27 2.45  25 2.46  23 2.46  29 2.50  33 2.52
                            40 2.54  64 2.54  44 2.57  38 2.58
  42  0.673  0.584  0.287-  25 2.42  21 2.43  41 2.43  43 2.47  48 2.47  28 2.50  40 2.52  47 2.54
                            39 2.58  26 2.59  61 2.60  24 2.63
  43  0.919  0.587  0.281-  41 2.35  33 2.40  27 2.41  46 2.46  42 2.47  48 2.47  17 2.49  28 2.54
                            37 2.55  60 2.56  30 2.61  24 2.75
  44  0.086  0.916  0.194-  45 2.43  11 2.45  48 2.45   9 2.47  33 2.48  10 2.49  46 2.52   1 2.53
                            49 2.53  64 2.54  29 2.56  41 2.57
  45  0.327  0.919  0.193-  44 2.43  33 2.48  10 2.48  49 2.49  13 2.51  46 2.51  63 2.52  12 2.54
                            31 2.55   3 2.55  62 2.59  36 2.62
  46  0.164  0.827  0.290-  30 2.44  43 2.46  33 2.49  50 2.51  45 2.51  37 2.51  44 2.52  63 2.52
                            48 2.52  32 2.53  11 2.53  13 2.54
  47  0.665  0.831  0.289-  35 2.49  39 2.52  62 2.52  15 2.52  64 2.52  63 2.53  61 2.53  42 2.54
                            48 2.54   6 2.54  40 2.54  57 2.56
  48  0.916  0.830  0.285-  44 2.45  41 2.45  64 2.46  42 2.47  43 2.47   2 2.49  11 2.51  46 2.52
                            47 2.54  30 2.55  57 2.56  39 2.61
  49  0.249  0.998  0.096-  45 2.49   1 2.51  44 2.53   3 2.53  53 2.55  31 2.56  29 2.57  10 2.58
                             7 2.58
  50  0.248  0.991  0.386-  66 1.87  30 2.46  32 2.47  46 2.51  13 2.51  54 2.52   8 2.55   4 2.55
                             2 2.58  11 2.58
  51  0.001  0.250  0.097-   7 2.49  58 2.51   9 2.52   1 2.54  55 2.55  14 2.56  18 2.58   5 2.59
                            16 2.63
  52  0.007  0.251  0.381-  68 1.89  19 2.41  59 2.46   8 2.46  57 2.50  56 2.54   2 2.54  60 2.54
                            17 2.55   6 2.57
  53  0.499  0.252  0.095-  55 2.53   7 2.54  20 2.54  49 2.55   3 2.58  25 2.58  12 2.58  10 2.59
                            23 2.60
  54  0.495  0.242  0.389-  66 1.92  69 2.03  50 2.52   8 2.53  13 2.53  21 2.55  24 2.56   4 2.57
                            28 2.58  56 2.59  26 2.66
  55  0.749  0.251  0.096-  14 2.51  27 2.51  53 2.53   5 2.54  51 2.55   3 2.55  12 2.55  23 2.57
                            16 2.60
  56  0.754  0.248  0.385-  69 1.94  68 1.96  28 2.49  15 2.51   6 2.52  24 2.52  60 2.52  52 2.54
                            17 2.56   4 2.58  54 2.59
  57  0.919  0.084  0.286-   2 2.48  64 2.49  14 2.50  52 2.50  59 2.51  11 2.52   9 2.52  60 2.53
                            15 2.54  48 2.56  47 2.56   6 2.58
  58  0.083  0.417  0.192-  37 2.45  60 2.48  36 2.49  59 2.50  51 2.51  18 2.53  33 2.55  14 2.56
                            16 2.57  27 2.59  22 2.60   9 2.62
  59  0.167  0.332  0.287-  52 2.46  58 2.50  19 2.50  26 2.50  61 2.51  37 2.51   8 2.51  57 2.51
                             9 2.53  22 2.56  11 2.56  60 2.56
  60  0.913  0.331  0.286-  17 2.42  14 2.44  58 2.48  28 2.49  27 2.50  15 2.52  56 2.52  57 2.53
                            52 2.54  37 2.55  43 2.56  59 2.56
  61  0.414  0.581  0.286-  21 2.42  40 2.47  36 2.49  37 2.49  63 2.50  22 2.51  59 2.51  26 2.52
                            47 2.53  35 2.55  19 2.57  42 2.60
  62  0.582  0.915  0.192-  63 2.48  34 2.49   3 2.50  14 2.51  15 2.51   5 2.52  47 2.52  12 2.52
                            64 2.55  36 2.56  40 2.56  45 2.59
  63  0.413  0.827  0.286-   4 2.43  62 2.48  37 2.49  61 2.50  36 2.50  45 2.52  46 2.52  47 2.53
                            15 2.56  13 2.57  35 2.58  32 2.59
  64  0.834  0.915  0.192-  48 2.46  57 2.49   1 2.51  47 2.52   9 2.54  44 2.54  41 2.54  38 2.55
                            62 2.55  40 2.57   5 2.58  14 2.59
  65  0.838  0.673  0.438-  39 1.84  30 1.85  24 1.88
  66  0.313  0.161  0.439-   8 1.79  50 1.87  54 1.92
  67  0.334  0.657  0.438-  19 1.86  35 1.87  32 1.87
  68  0.845  0.160  0.440-   6 1.82  52 1.89  56 1.96
  69  0.676  0.326  0.449-  70 1.54  24 1.94  56 1.94  54 2.03
  70  0.721  0.319  0.518-  71 0.99  69 1.54
  71  0.770  0.257  0.510-  70 0.99
 

IMPORTANT INFORMATION: All symmetrisations will be switched off!
NOSYMM: (Re-)initialisation of all symmetry stuff for point group C_1.

 
 

Automatic generation of k-mesh.
 generate k-points for:    3    3    1
Space group operators:
 irot       det(A)        alpha          n_x          n_y          n_z        tau_x        tau_y        tau_z
    1     1.000000     0.000000     1.000000     0.000000     0.000000     0.000000     0.000000     0.000000
 
 Subroutine IBZKPT returns following result:
 ===========================================
 
 Found      5 irreducible k-points:
 
 Following reciprocal coordinates:
            Coordinates               Weight
  0.000000  0.000000  0.000000      1.000000
  0.333333  0.000000  0.000000      2.000000
  0.000000  0.333333  0.000000      2.000000
  0.333333  0.333333  0.000000      2.000000
 -0.333333  0.333333  0.000000      2.000000
 
 Following cartesian coordinates:
            Coordinates               Weight
  0.000000  0.000000  0.000000      1.000000
  0.032965  0.019033  0.000000      2.000000
  0.000000  0.038065  0.000000      2.000000
  0.032965  0.057098  0.000000      2.000000
 -0.032965  0.019033  0.000000      2.000000
 


--------------------------------------------------------------------------------------------------------




 Dimension of arrays:
   k-points           NKPTS =      5   k-points in BZ     NKDIM =      5   number of bands    NBANDS=    384
   number of dos      NEDOS =    301   number of ions     NIONS =     71
   non local maximal  LDIM  =      6   non local SUM 2l+1 LMDIM =     18
   total plane-waves  NPLWV = ******
   max r-space proj   IRMAX =   8269   max aug-charges    IRDMAX=  19568
   dimension x,y,z NGX =    80 NGY =   80 NGZ =  160
   dimension x,y,z NGXF=   160 NGYF=  160 NGZF=  320
   support grid    NGXF=   160 NGYF=  160 NGZF=  320
   ions per type =              48  16   6   1
   NGX,Y,Z   is equivalent  to a cutoff of  13.15, 13.15, 12.51 a.u.
   NGXF,Y,Z  is equivalent  to a cutoff of  26.31, 26.31, 25.02 a.u.

 SYSTEM =  SQS-NiFe                                
 POSCAR =  POSCAR                                  

 Startparameter for this run:
   NWRITE =      2    write-flag & timer
   PREC   = accura    normal or accurate (medium, high low for compatibility)
   ISTART =      1    job   : 0-new  1-cont  2-samecut
   ICHARG =      1    charge: 1-file 2-atom 10-const
   ISPIN  =      2    spin polarized calculation?
   LNONCOLLINEAR =      F non collinear calculations
   LSORBIT =      F    spin-orbit coupling
   INIWAV =      1    electr: 0-lowe 1-rand  2-diag
   LASPH  =      F    aspherical Exc in radial PAW
   METAGGA=      F    non-selfconsistent MetaGGA calc.

 Electronic Relaxation 1
   ENCUT  =  520.0 eV  38.22 Ry    6.18 a.u.  18.80 18.80 39.54*2*pi/ulx,y,z
   ENINI  =  520.0     initial cutoff
   ENAUG  =  605.4 eV  augmentation charge cutoff
   NELM   =    200;   NELMIN=  2; NELMDL=  0     # of ELM steps 
   EDIFF  = 0.1E-04   stopping-criterion for ELM
   LREAL  =      T    real-space projection
   NLSPLINE    = F    spline interpolate recip. space projectors
   LCOMPAT=      F    compatible to vasp.4.4
   GGA_COMPAT  = T    GGA compatible to vasp.4.4-vasp.4.6
   LMAXPAW     = -100 max onsite density
   LMAXMIX     =    2 max onsite mixed and CHGCAR
   VOSKOWN=      0    Vosko Wilk Nusair interpolation
   ROPT   =   -0.00025  -0.00025  -0.00025  -0.00025
 Ionic relaxation
   EDIFFG = -.5E-01   stopping-criterion for IOM
   NSW    =     99    number of steps for IOM
   NBLOCK =      1;   KBLOCK =     99    inner block; outer block 
   IBRION =      2    ionic relax: 0-MD 1-quasi-New 2-CG
   NFREE  =      1    steps in history (QN), initial steepest desc. (CG)
   ISIF   =      2    stress and relaxation
   IWAVPR =     11    prediction:  0-non 1-charg 2-wave 3-comb
   ISYM   =      0    0-nonsym 1-usesym 2-fastsym
   LCORR  =      T    Harris-Foulkes like correction to forces

   POTIM  = 0.5000    time-step for ionic-motion
   TEIN   =    0.0    initial temperature
   TEBEG  =    0.0;   TEEND  =   0.0 temperature during run
   SMASS  =  -3.00    Nose mass-parameter (am)
   estimated Nose-frequenzy (Omega)   =  0.10E-29 period in steps =****** mass=  -0.234E-26a.u.
   SCALEE = 1.0000    scale energy and forces
   NPACO  =    256;   APACO  = 16.0  distance and # of slots for P.C.
   PSTRESS=    0.0 pullay stress

  Mass of Ions in am
   POMASS =  55.85 58.69 16.00  1.00
  Ionic Valenz
   ZVAL   =   8.00 10.00  6.00  1.00
  Atomic Wigner-Seitz radii
   RWIGS  =  -1.00 -1.00 -1.00 -1.00
  virtual crystal weights 
   VCA    =   1.00  1.00  1.00  1.00
   NELECT =     581.0000    total number of electrons
   NUPDOWN=      -1.0000    fix difference up-down

 DOS related values:
   EMIN   =  10.00;   EMAX   =-10.00  energy-range for DOS
   EFERMI =   0.00
   ISMEAR =     1;   SIGMA  =   0.20  broadening in eV -4-tet -1-fermi 0-gaus

 Electronic relaxation 2 (details)
   IALGO  =     68    algorithm
   LDIAG  =      T    sub-space diagonalisation (order eigenvalues)
   LSUBROT=      F    optimize rotation matrix (better conditioning)
   TURBO    =      0    0=normal 1=particle mesh
   IRESTART =      0    0=no restart 2=restart with 2 vectors
   NREBOOT  =      0    no. of reboots
   NMIN     =      0    reboot dimension
   EREF     =   0.00    reference energy to select bands
   IMIX   =      4    mixing-type and parameters
     AMIX     =   0.40;   BMIX     =  1.00
     AMIX_MAG =   1.60;   BMIX_MAG =  1.00
     AMIN     =   0.10
     WC   =   100.;   INIMIX=   1;  MIXPRE=   1;  MAXMIX= -45

 Intra band minimization:
   WEIMIN = 0.0010     energy-eigenvalue tresh-hold
   EBREAK =  0.65E-08  absolut break condition
   DEPER  =   0.30     relativ break condition  

   TIME   =   0.40     timestep for ELM

  volume/ion in A,a.u.               =      26.52       178.98
  Fermi-wavevector in a.u.,A,eV,Ry     =   1.106227  2.090466 16.649976  1.223739
  Thomas-Fermi vector in A             =   2.242725
 
 Write flags
   LWAVE        =      T    write WAVECAR
   LDOWNSAMPLE  =      F    k-point downsampling of WAVECAR
   LCHARG       =      T    write CHGCAR
   LVTOT        =      F    write LOCPOT, total local potential
   LVHAR        =      F    write LOCPOT, Hartree potential only
   LELF         =      F    write electronic localiz. function (ELF)
   LORBIT       =     10    0 simple, 1 ext, 2 COOP (PROOUT), +10 PAW based schemes


 Dipole corrections
   LMONO  =      F    monopole corrections only (constant potential shift)
   LDIPOL =      T    correct potential (dipole corrections)
   IDIPOL =      3    1-x, 2-y, 3-z, 4-all directions 
   EPSILON=  1.0000000 bulk dielectric constant

 Exchange correlation treatment:
   GGA     =    --    GGA type
   LEXCH   =     8    internal setting for exchange type
   VOSKOWN=      0    Vosko Wilk Nusair interpolation
   LHFCALC =     F    Hartree Fock is set to
   LHFONE  =     F    Hartree Fock one center treatment
   AEXX    =    0.0000 exact exchange contribution

 Linear response parameters
   LEPSILON=     F    determine dielectric tensor
   LRPA    =     F    only Hartree local field effects (RPA)
   LNABLA  =     F    use nabla operator in PAW spheres
   LVEL    =     F    velocity operator in full k-point grid
   LINTERFAST=   F  fast interpolation
   KINTER  =     0    interpolate to denser k-point grid
   CSHIFT  =0.1000    complex shift for real part using Kramers Kronig
   OMEGAMAX=  -1.0    maximum frequency
   DEG_THRESHOLD= 0.2000000E-02 threshold for treating states as degnerate
   RTIME   =   -0.100 relaxation time in fs
  (WPLASMAI=    0.000 imaginary part of plasma frequency in eV, 0.658/RTIME)
   DFIELD  = 0.0000000 0.0000000 0.0000000 field for delta impulse in time
 
 Orbital magnetization related:
   ORBITALMAG=     F  switch on orbital magnetization
   LCHIMAG   =     F  perturbation theory with respect to B field
   DQ        =  0.001000  dq finite difference perturbation B field
   LLRAUG    =     F  two centre corrections for induced B field



--------------------------------------------------------------------------------------------------------


 conjugate gradient relaxation of ions
   using selective dynamics as specified on POSCAR
 charge density and potential will be updated during run
 spin polarized calculation
 RMM-DIIS sequential band-by-band and
  variant of blocked Davidson during initial phase
 perform sub-space diagonalisation
    before iterative eigenvector-optimisation
 modified Broyden-mixing scheme, WC =      100.0
 initial mixing is a Kerker type mixing with AMIX =  0.4000 and BMIX =      1.0000
 Hartree-type preconditioning will be used
 using additional bands           93
 real space projection scheme for non local part
 use partial core corrections
 calculate Harris-corrections to forces 
   (improved forces if not selfconsistent)
 use gradient corrections 
 use of overlap-Matrix (Vanderbilt PP)
 Methfessel and Paxton  Order N= 1 SIGMA  =   0.20


--------------------------------------------------------------------------------------------------------


  energy-cutoff  :      520.00
  volume of cell :     1883.07
      direct lattice vectors                 reciprocal lattice vectors
    10.111630000  0.000000000  0.000000000     0.098896024  0.057097646  0.000000000
    -5.055815000  8.756928450  0.000000000     0.000000000  0.114195292  0.000000000
     0.000000000  0.000000000 21.266430000     0.000000000  0.000000000  0.047022467

  length of vectors
    10.111630000 10.111629997 21.266430000     0.114195292  0.114195292  0.047022467


 
 old parameters found on file WAVECAR:
  energy-cutoff  :      520.00
  volume of cell :     1883.07
      direct lattice vectors                 reciprocal lattice vectors
    10.111630000  0.000000000  0.000000000     0.098896024  0.057097646  0.000000000
    -5.055815000  8.756928450  0.000000000     0.000000000  0.114195292  0.000000000
     0.000000000  0.000000000 21.266430000     0.000000000  0.000000000  0.047022467

  length of vectors

 
 k-points in units of 2pi/SCALE and weight: read from INCAR                         
   0.00000000  0.00000000  0.00000000       0.111
   0.03296534  0.01903255  0.00000000       0.222
   0.00000000  0.03806510  0.00000000       0.222
   0.03296534  0.05709765  0.00000000       0.222
  -0.03296534  0.01903255  0.00000000       0.222
 
 k-points in reciprocal lattice and weights: read from INCAR                         
   0.00000000  0.00000000  0.00000000       0.111
   0.33333333  0.00000000  0.00000000       0.222
   0.00000000  0.33333333  0.00000000       0.222
   0.33333333  0.33333333  0.00000000       0.222
  -0.33333333  0.33333333  0.00000000       0.222
 
 position of ions in fractional coordinates (direct lattice) 
   0.00194700  0.99920000  0.09682900
   0.99614495  0.99532530  0.38029916
   0.49880600  0.99647600  0.09614500
   0.50049910  0.99109162  0.37823114
   0.74316000  0.99645900  0.09443100
   0.75301378  0.99824685  0.38635471
   0.24913600  0.25322600  0.09681000
   0.24491720  0.24092205  0.38186232
   0.08873200  0.16149400  0.19059200
   0.32962600  0.16609800  0.19506300
   0.16468759  0.07798057  0.28749756
   0.58333000  0.16550300  0.19443700
   0.41292331  0.08131548  0.29005616
   0.82651500  0.16651000  0.19326300
   0.66636286  0.08082327  0.28885810
   0.00320800  0.51090900  0.09451300
   0.00387156  0.50206501  0.37518435
   0.25586900  0.50577700  0.09734600
   0.24678854  0.48889632  0.38476130
   0.49960200  0.50304900  0.09754100
   0.49827504  0.49352985  0.37515455
   0.33859900  0.41583700  0.18939300
   0.75679100  0.50804300  0.09630900
   0.74863783  0.49375289  0.38974999
   0.58633600  0.42229400  0.19423600
   0.41335449  0.33077913  0.28575539
   0.82677100  0.41676200  0.19199500
   0.66928455  0.33457987  0.29151211
   0.99180600  0.74702800  0.09571300
   0.00349582  0.75023316  0.38373584
   0.25104600  0.74563900  0.09703600
   0.24902815  0.74708717  0.38727692
   0.08604600  0.67086900  0.19220200
   0.50153700  0.74905700  0.09752900
   0.50269755  0.74557761  0.38461713
   0.33005900  0.66135600  0.19018600
   0.16786823  0.58079140  0.28566676
   0.74777500  0.74863100  0.09404500
   0.74730851  0.75097858  0.38657458
   0.58008200  0.66096300  0.19152700
   0.83213700  0.66199500  0.19303500
   0.67317161  0.58357229  0.28673204
   0.91876186  0.58655522  0.28135105
   0.08603600  0.91635500  0.19371200
   0.32743000  0.91932200  0.19293700
   0.16395993  0.82701058  0.28981480
   0.66534569  0.83075362  0.28864119
   0.91612541  0.82980447  0.28529347
   0.24916500  0.99813100  0.09559800
   0.24845256  0.99066231  0.38643502
   0.00129700  0.24974200  0.09658600
   0.00681609  0.25146908  0.38149150
   0.49933100  0.25162700  0.09537300
   0.49481706  0.24172359  0.38905664
   0.74944200  0.25071300  0.09573100
   0.75411416  0.24772538  0.38456180
   0.91889871  0.08430853  0.28608805
   0.08260800  0.41708000  0.19225300
   0.16720235  0.33233182  0.28667401
   0.91336815  0.33121784  0.28562834
   0.41439960  0.58085110  0.28559073
   0.58190700  0.91526900  0.19241300
   0.41322923  0.82726531  0.28586432
   0.83399900  0.91457100  0.19240400
   0.83829152  0.67332666  0.43776998
   0.31330800  0.16053318  0.43921923
   0.33383061  0.65743003  0.43813303
   0.84504919  0.15987796  0.43976397
   0.67568727  0.32622498  0.44906445
   0.72073568  0.31852627  0.51765061
   0.77006053  0.25655653  0.50981547
 
 position of ions in cartesian coordinates  (Angst):
  -5.03208300  8.74992291  2.05920715
   5.04046858  8.71599240  8.08760543
   0.00574341  8.72606903  2.04466091
   0.05008586  8.67891843  8.04362616
   2.47664659  8.72592017  2.00821025
   2.56724537  8.74157620  8.21638549
   1.23890724  2.21748196  2.05880309
   1.25845477  2.10973716  8.12084825
   0.08074137  1.41419140  4.05321143
   2.49329539  1.45450830  4.14829364
   1.27100459  0.68287029  6.11404671
   5.06166458  1.44929793  4.13498085
   3.76421170  0.71207385  6.16845910
   7.51557011  1.45811616  4.11001406
   6.32938713  0.70776363  6.14298065
  -2.55062328  4.47399356  2.00995410
  -2.49920000  4.39654739  7.97883176
   0.03013771  4.42905300  2.07020189
   0.02366506  4.28123013  8.18249918
   2.50846789  4.40516410  2.07434885
   2.54317718  4.32180558  7.97819805
   1.32139286  3.64145486  4.02771298
   5.08381916  4.44889620  2.04814861
   5.07362543  4.32375873  8.28859084
   3.79377235  3.69799834  4.13070630
   2.50732961  2.89660917  6.07699707
   6.25293088  3.64955501  4.08304823
   5.07598383  2.92989198  6.19942183
   6.25193994  6.54167075  2.03547381
  -3.75769161  6.56973806  8.16069139
  -1.23132858  6.52950737  2.06360930
  -1.25905403  6.54218892  8.23599760
  -2.52172424  5.87475183  4.08745038
   1.28426296  6.55943855  2.07409365
   1.31358916  6.52896980  8.17943317
  -0.00625910  5.79144717  4.04457726
  -1.23895244  5.08594875  6.07511208
   3.77628428  6.55570810  2.00000141
   3.75969834  6.57626571  8.22106117
   2.52386790  5.78800570  4.07309554
   5.06733720  5.79704285  4.10516532
   3.85642872  5.11030079  6.09776682
   6.32466528  5.13642211  5.98333242
  -3.76295716  8.02445517  4.11956269
  -1.33707095  8.05043698  4.10308120
  -2.52331032  7.24207244  6.16332618
   2.52759286  7.27485000  6.13836773
   5.06818330  7.26653840  6.06717354
  -2.52690139  8.74056175  2.03302818
  -2.49634499  8.67515898  8.21809324
  -1.24953457  2.18697282  2.05403941
  -1.20245933  2.20209675  8.11296235
   3.77687076  2.20347964  2.02824323
   3.78129721  2.11675621  8.27384576
   6.31052166  2.19547580  2.03585661
   6.37286966  2.16931346  8.17825660
   8.86531545  0.73828374  6.08407149
  -1.27337779  3.65233972  4.08853497
   0.01048011  2.91020601  6.09653286
   7.56106467  2.90045089  6.07429515
   1.25357973  5.08647149  6.07349537
   1.25659754  8.01494515  4.09193760
  -0.00407928  7.24430311  6.07931346
   3.80918753  8.00883281  4.09174620
   5.07227863  5.89627338  9.30980466
   2.35642852  1.40577755  9.34062498
   0.05172704  5.75706769  9.31752531
   7.73651134  1.40003983  9.35220976
   5.18296656  2.85672877  9.54999771
   5.67740266  2.78931174 11.00858053
   6.48946482  2.24664716 10.84195499
 


--------------------------------------------------------------------------------------------------------


 k-point  1 :   0.0000 0.0000 0.0000  plane waves:   50761
 k-point  2 :   0.3333 0.0000 0.0000  plane waves:   50732
 k-point  3 :   0.0000 0.3333 0.0000  plane waves:   50732
 k-point  4 :   0.3333 0.3333 0.0000  plane waves:   50727
 k-point  5 :  -0.3333 0.3333 0.0000  plane waves:   50732

 maximum and minimum number of plane-waves per node :      2133     2094

 maximum number of plane-waves:     50761
 maximum index in each direction: 
   IXMAX=   19   IYMAX=   18   IZMAX=   39
   IXMIN=  -19   IYMIN=  -19   IZMIN=  -39


 real space projection operators:
  total allocation   :      70262.41 KBytes
  max/ min on nodes  :       3503.99       2632.56


 parallel 3D FFT for wavefunctions:
    minimum data exchange during FFTs selected (reduces bandwidth)
 parallel 3D FFT for charge:
    minimum data exchange during FFTs selected (reduces bandwidth)


 total amount of memory used by VASP MPI-rank0   114357. kBytes
=======================================================================

   base      :      30000. kBytes
   nonlr-proj:      14267. kBytes
   fftplans  :       6403. kBytes
   grid      :      18928. kBytes
   one-center:         93. kBytes
   wavefun   :      44666. kBytes
 
     INWAV:  cpu time   10.5382: real time   10.9142
 Broyden mixing: mesh for mixing (old mesh)
   NGX = 37   NGY = 37   NGZ = 79
  (NGX  =160   NGY  =160   NGZ  =320)
  gives a total of 108151 points

 initial charge density was supplied:
 number of electron     581.0000099 magnetization      99.5356681
 keeping initial charge density in first step


--------------------------------------------------------------------------------------------------------


 Maximum index for non-local projection operator          763
 Maximum index for augmentation-charges         1126 (set IRDMAX)


--------------------------------------------------------------------------------------------------------


 First call to EWALD:  gamma=   0.144
 Maximum number of real-space cells 4x 4x 2
 Maximum number of reciprocal cells 2x 2x 4

    FEWALD:  cpu time    0.0034: real time    0.0034


--------------------------------------- Iteration      1(   1)  ---------------------------------------


    POTLOK:  cpu time    0.4203: real time    0.4264
    SETDIJ:  cpu time    0.0249: real time    0.0250
     EDDAV:  cpu time   37.1714: real time   37.2058
       DOS:  cpu time    0.0081: real time    0.0081
    CHARGE:  cpu time    1.2728: real time    1.2730
    MIXING:  cpu time    0.0063: real time    0.0063
    --------------------------------------------
      LOOP:  cpu time   38.9047: real time   38.9448

 eigenvalue-minimisations  :  8070
 total energy-change (2. order) :-0.4868689E+03  (-0.1597231E+03)
 number of electron     581.0000099 magnetization      99.3712768
 augmentation part      303.9075378 magnetization      80.7179677

 DIPCOR: dipole corrections for dipol
 direction  3 min pos   247,
 dipolmoment           0.000000      0.000000      0.334769 electrons x Angstroem
 Tr[quadrupol]    -10098.545929

 energy correction for charged system         0.000000 eV
 dipol+quadrupol energy correction           -0.005385 eV
 added-field ion interaction          5.946968 eV  (added to PSCEN)


 Broyden mixing:
  rms(total) = 0.82088E+00    rms(broyden)= 0.82084E+00
  rms(prec ) = 0.82764E+00
  weight for this iteration     100.00

 Free energy of the ion-electron system (eV)
  ---------------------------------------------------
  alpha Z        PSCENC =      1580.78326273
  Ewald energy   TEWEN  =    174617.10601979
  -Hartree energ DENC   =   -222588.39605171
  -exchange      EXHF   =         0.00000000
  -V(xc)+E(xc)   XCENC  =       863.61414214
  PAW double counting   =     55005.10956139   -56550.67658189
  entropy T*S    EENTRO =         0.05032977
  eigenvalues    EBANDS =     -1790.83785923
  atomic energy  EATOM  =     48376.37827422
  Solvation  Ediel_sol  =         0.00000000
  ---------------------------------------------------
  free energy    TOTEN  =      -486.86890278 eV

  energy without entropy =     -486.91923255  energy(sigma->0) =     -486.88567937


--------------------------------------------------------------------------------------------------------




--------------------------------------- Iteration      1(   2)  ---------------------------------------


    POTLOK:  cpu time    0.4236: real time    0.4267
    SETDIJ:  cpu time    0.0250: real time    0.0250
    EDDIAG:  cpu time    5.2163: real time    5.2179
  RMM-DIIS:  cpu time   19.0170: real time   19.0317
    ORTHCH:  cpu time    1.4229: real time    1.4307
       DOS:  cpu time    0.0085: real time    0.0085
    CHARGE:  cpu time    1.2657: real time    1.2660
    MIXING:  cpu time    0.0064: real time    0.0064
    --------------------------------------------
      LOOP:  cpu time   27.3846: real time   27.4129

 eigenvalue-minimisations  :  7824
 total energy-change (2. order) :-0.1263425E+02  (-0.1249745E+02)
 number of electron     581.0000098 magnetization      99.3001481
 augmentation part      299.8143473 magnetization      80.4702672

 DIPCOR: dipole corrections for dipol
 direction  3 min pos   252,
 dipolmoment           0.000000      0.000000      0.336802 electrons x Angstroem
 Tr[quadrupol]    -10099.044074

 energy correction for charged system         0.000000 eV
 dipol+quadrupol energy correction           -0.005450 eV
 added-field ion interaction         12.231678 eV  (added to PSCEN)


 Broyden mixing:
  rms(total) = 0.11695E+01    rms(broyden)= 0.11695E+01
  rms(prec ) = 0.12248E+01
  weight for this iteration     100.00

 eigenvalues of (default mixing * dielectric matrix)
  average eigenvalue GAMMA=   0.3635
  0.3635

 Free energy of the ion-electron system (eV)
  ---------------------------------------------------
  alpha Z        PSCENC =      1587.06790712
  Ewald energy   TEWEN  =    174617.10601979
  -Hartree energ DENC   =   -222629.86901738
  -exchange      EXHF   =         0.00000000
  -V(xc)+E(xc)   XCENC  =       864.18530980
  PAW double counting   =     55377.26741350   -56943.34178044
  entropy T*S    EENTRO =         0.06156747
  eigenvalues    EBANDS =     -1748.35884798
  atomic energy  EATOM  =     48376.37827422
  Solvation  Ediel_sol  =         0.00000000
  ---------------------------------------------------
  free energy    TOTEN  =      -499.50315388 eV

  energy without entropy =     -499.56472136  energy(sigma->0) =     -499.52367638


--------------------------------------------------------------------------------------------------------




--------------------------------------- Iteration      1(   3)  ---------------------------------------


    POTLOK:  cpu time    0.4202: real time    0.4276
    SETDIJ:  cpu time    0.0249: real time    0.0249
    EDDIAG:  cpu time    5.2009: real time    5.2030
  RMM-DIIS:  cpu time   20.3541: real time   20.3716
    ORTHCH:  cpu time    1.4272: real time    1.4276
       DOS:  cpu time    0.0086: real time    0.0086
    CHARGE:  cpu time    1.2639: real time    1.2713
    MIXING:  cpu time    0.0064: real time    0.0064
    --------------------------------------------
      LOOP:  cpu time   28.7062: real time   28.7410

 eigenvalue-minimisations  :  8389
 total energy-change (2. order) :-0.2135439E+01  (-0.1711275E+01)
 number of electron     581.0000099 magnetization      99.3156955
 augmentation part      301.5725051 magnetization      79.0321964

 DIPCOR: dipole corrections for dipol
 direction  3 min pos   244,
 dipolmoment           0.000000      0.000000      0.267496 electrons x Angstroem
 Tr[quadrupol]    -10098.068955

 energy correction for charged system         0.000000 eV
 dipol+quadrupol energy correction           -0.003438 eV
 added-field ion interaction          1.774242 eV  (added to PSCEN)


 Broyden mixing:
  rms(total) = 0.16401E+01    rms(broyden)= 0.16400E+01
  rms(prec ) = 0.19129E+01
  weight for this iteration     100.00

 eigenvalues of (default mixing * dielectric matrix)
  average eigenvalue GAMMA=   0.2383
  0.3332  0.1435

 Free energy of the ion-electron system (eV)
  ---------------------------------------------------
  alpha Z        PSCENC =      1576.61248399
  Ewald energy   TEWEN  =    174617.10601979
  -Hartree energ DENC   =   -222584.55460649
  -exchange      EXHF   =         0.00000000
  -V(xc)+E(xc)   XCENC  =       862.49689787
  PAW double counting   =     55310.29735787   -56865.98152095
  entropy T*S    EENTRO =         0.05060970
  eigenvalues    EBANDS =     -1794.04410857
  atomic energy  EATOM  =     48376.37827422
  Solvation  Ediel_sol  =         0.00000000
  ---------------------------------------------------
  free energy    TOTEN  =      -501.63859257 eV

  energy without entropy =     -501.68920227  energy(sigma->0) =     -501.65546247


--------------------------------------------------------------------------------------------------------




--------------------------------------- Iteration      1(   4)  ---------------------------------------


    POTLOK:  cpu time    0.4164: real time    0.4254
    SETDIJ:  cpu time    0.0248: real time    0.0248
    EDDIAG:  cpu time    5.1990: real time    5.2007
  RMM-DIIS:  cpu time   20.0885: real time   20.1055
    ORTHCH:  cpu time    1.4283: real time    1.4288
       DOS:  cpu time    0.0086: real time    0.0086
    CHARGE:  cpu time    1.2653: real time    1.2656
    MIXING:  cpu time    0.0065: real time    0.0065
    --------------------------------------------
      LOOP:  cpu time   28.4374: real time   28.4659

 eigenvalue-minimisations  :  8257
 total energy-change (2. order) : 0.8351383E+00  (-0.2927420E+00)
 number of electron     581.0000099 magnetization      99.3053641
 augmentation part      300.9550286 magnetization      80.2590218

 DIPCOR: dipole corrections for dipol
 direction  3 min pos   244,
 dipolmoment           0.000000      0.000000      0.444472 electrons x Angstroem
 Tr[quadrupol]    -10098.361975

 energy correction for charged system         0.000000 eV
 dipol+quadrupol energy correction           -0.009492 eV
 added-field ion interaction          2.948086 eV  (added to PSCEN)


 Broyden mixing:
  rms(total) = 0.81695E+00    rms(broyden)= 0.81685E+00
  rms(prec ) = 0.10897E+01
  weight for this iteration     100.00

 eigenvalues of (default mixing * dielectric matrix)
  average eigenvalue GAMMA=   0.2375
  0.3147  0.3147  0.0831

 Free energy of the ion-electron system (eV)
  ---------------------------------------------------
  alpha Z        PSCENC =      1577.78027379
  Ewald energy   TEWEN  =    174617.10601979
  -Hartree energ DENC   =   -222592.29352198
  -exchange      EXHF   =         0.00000000
  -V(xc)+E(xc)   XCENC  =       862.72061204
  PAW double counting   =     55301.40135489   -56856.38135059
  entropy T*S    EENTRO =         0.06268591
  eigenvalues    EBANDS =     -1787.57780233
  atomic energy  EATOM  =     48376.37827422
  Solvation  Ediel_sol  =         0.00000000
  ---------------------------------------------------
  free energy    TOTEN  =      -500.80345426 eV

  energy without entropy =     -500.86614017  energy(sigma->0) =     -500.82434956


--------------------------------------------------------------------------------------------------------




--------------------------------------- Iteration      1(   5)  ---------------------------------------


    POTLOK:  cpu time    0.4193: real time    0.4273
    SETDIJ:  cpu time    0.0249: real time    0.0249
    EDDIAG:  cpu time    5.2055: real time    5.2158
  RMM-DIIS:  cpu time   20.8440: real time   20.8591
    ORTHCH:  cpu time    1.4255: real time    1.4259
       DOS:  cpu time    0.0086: real time    0.0085
    CHARGE:  cpu time    1.2664: real time    1.2666
    MIXING:  cpu time    0.0066: real time    0.0066
    --------------------------------------------
      LOOP:  cpu time   29.2007: real time   29.2348

 eigenvalue-minimisations  :  8605
 total energy-change (2. order) :-0.4126690E-01  (-0.9356849E-01)
 number of electron     581.0000099 magnetization      99.2832539
 augmentation part      301.1400170 magnetization      80.0650676

 DIPCOR: dipole corrections for dipol
 direction  3 min pos   242,
 dipolmoment           0.000000      0.000000      0.248230 electrons x Angstroem
 Tr[quadrupol]    -10098.161051

 energy correction for charged system         0.000000 eV
 dipol+quadrupol energy correction           -0.002961 eV
 added-field ion interaction         -0.195679 eV  (added to PSCEN)


 Broyden mixing:
  rms(total) = 0.78518E+00    rms(broyden)= 0.78512E+00
  rms(prec ) = 0.10731E+01
  weight for this iteration     100.00

 eigenvalues of (default mixing * dielectric matrix)
  average eigenvalue GAMMA=   0.2809
  0.4760  0.4760  0.1120  0.0597

 Free energy of the ion-electron system (eV)
  ---------------------------------------------------
  alpha Z        PSCENC =      1574.64303973
  Ewald energy   TEWEN  =    174617.10601979
  -Hartree energ DENC   =   -222589.24236420
  -exchange      EXHF   =         0.00000000
  -V(xc)+E(xc)   XCENC  =       862.72612740
  PAW double counting   =     55285.75406214   -56840.27051477
  entropy T*S    EENTRO =         0.06463601
  eigenvalues    EBANDS =     -1788.00400150
  atomic energy  EATOM  =     48376.37827422
  Solvation  Ediel_sol  =         0.00000000
  ---------------------------------------------------
  free energy    TOTEN  =      -500.84472116 eV

  energy without entropy =     -500.90935717  energy(sigma->0) =     -500.86626650


--------------------------------------------------------------------------------------------------------




--------------------------------------- Iteration      1(   6)  ---------------------------------------


    POTLOK:  cpu time    0.4198: real time    0.4325
    SETDIJ:  cpu time    0.0246: real time    0.0246
    EDDIAG:  cpu time    5.1958: real time    5.2043
  RMM-DIIS:  cpu time   19.3575: real time   19.3713
    ORTHCH:  cpu time    1.4308: real time    1.4310
       DOS:  cpu time    0.0086: real time    0.0086
    CHARGE:  cpu time    1.2654: real time    1.2657
    MIXING:  cpu time    0.0068: real time    0.0068
    --------------------------------------------
      LOOP:  cpu time   27.7094: real time   27.7448

 eigenvalue-minimisations  :  7962
 total energy-change (2. order) : 0.1027461E+00  (-0.5178811E-01)
 number of electron     581.0000098 magnetization      99.2673572
 augmentation part      301.1033924 magnetization      80.1785707

 DIPCOR: dipole corrections for dipol
 direction  3 min pos   245,
 dipolmoment           0.000000      0.000000      0.383808 electrons x Angstroem
 Tr[quadrupol]    -10098.312464

 energy correction for charged system         0.000000 eV
 dipol+quadrupol energy correction           -0.007078 eV
 added-field ion interaction          3.969853 eV  (added to PSCEN)


 Broyden mixing:
  rms(total) = 0.72786E+00    rms(broyden)= 0.72780E+00
  rms(prec ) = 0.85303E+00
  weight for this iteration     100.00

 eigenvalues of (default mixing * dielectric matrix)
  average eigenvalue GAMMA=   0.2756
  0.5458  0.5458  0.1421  0.0918  0.0524

 Free energy of the ion-electron system (eV)
  ---------------------------------------------------
  alpha Z        PSCENC =      1578.80445442
  Ewald energy   TEWEN  =    174617.10601979
  -Hartree energ DENC   =   -222588.93321623
  -exchange      EXHF   =         0.00000000
  -V(xc)+E(xc)   XCENC  =       862.81007505
  PAW double counting   =     55251.95662963   -56805.20588518
  entropy T*S    EENTRO =         0.05542721
  eigenvalues    EBANDS =     -1793.71375395
  atomic energy  EATOM  =     48376.37827422
  Solvation  Ediel_sol  =         0.00000000
  ---------------------------------------------------
  free energy    TOTEN  =      -500.74197504 eV

  energy without entropy =     -500.79740225  energy(sigma->0) =     -500.76045078


--------------------------------------------------------------------------------------------------------




--------------------------------------- Iteration      1(   7)  ---------------------------------------


    POTLOK:  cpu time    0.4210: real time    0.4293
    SETDIJ:  cpu time    0.0250: real time    0.0251
    EDDIAG:  cpu time    5.2112: real time    5.2214
  RMM-DIIS:  cpu time   19.2160: real time   19.2312
    ORTHCH:  cpu time    1.4271: real time    1.4274
       DOS:  cpu time    0.0087: real time    0.0087
    CHARGE:  cpu time    1.2750: real time    1.2755
    MIXING:  cpu time    0.0071: real time    0.0071
    --------------------------------------------
      LOOP:  cpu time   27.5912: real time   27.6255

 eigenvalue-minimisations  :  7883
 total energy-change (2. order) : 0.2030825E+00  (-0.2151093E-01)
 number of electron     581.0000099 magnetization      99.2658924
 augmentation part      301.4738683 magnetization      80.0072429

 DIPCOR: dipole corrections for dipol
 direction  3 min pos   241,
 dipolmoment           0.000000      0.000000      0.340112 electrons x Angstroem
 Tr[quadrupol]    -10098.123463

 energy correction for charged system         0.000000 eV
 dipol+quadrupol energy correction           -0.005558 eV
 added-field ion interaction         -1.530108 eV  (added to PSCEN)


 Broyden mixing:
  rms(total) = 0.28955E+00    rms(broyden)= 0.28952E+00
  rms(prec ) = 0.31010E+00
  weight for this iteration     100.00

 eigenvalues of (default mixing * dielectric matrix)
  average eigenvalue GAMMA=   0.2606
  0.5504  0.5504  0.1819  0.1381  0.0900  0.0531

 Free energy of the ion-electron system (eV)
  ---------------------------------------------------
  alpha Z        PSCENC =      1573.30601363
  Ewald energy   TEWEN  =    174617.10601979
  -Hartree energ DENC   =   -222584.17622626
  -exchange      EXHF   =         0.00000000
  -V(xc)+E(xc)   XCENC  =       862.65764126
  PAW double counting   =     55213.60158578   -56764.69450815
  entropy T*S    EENTRO =         0.06301477
  eigenvalues    EBANDS =     -1794.78070758
  atomic energy  EATOM  =     48376.37827422
  Solvation  Ediel_sol  =         0.00000000
  ---------------------------------------------------
  free energy    TOTEN  =      -500.53889253 eV

  energy without entropy =     -500.60190730  energy(sigma->0) =     -500.55989745


--------------------------------------------------------------------------------------------------------




--------------------------------------- Iteration      1(   8)  ---------------------------------------


    POTLOK:  cpu time    0.4220: real time    0.4302
    SETDIJ:  cpu time    0.0249: real time    0.0249
    EDDIAG:  cpu time    5.2122: real time    5.2142
  RMM-DIIS:  cpu time   19.5304: real time   19.5512
    ORTHCH:  cpu time    1.4235: real time    1.4245
       DOS:  cpu time    0.0087: real time    0.0087
    CHARGE:  cpu time    1.2730: real time    1.2733
    MIXING:  cpu time    0.0071: real time    0.0071
    --------------------------------------------
      LOOP:  cpu time   27.9026: real time   27.9341

 eigenvalue-minimisations  :  7997
 total energy-change (2. order) : 0.8014740E-02  (-0.6572049E-02)
 number of electron     581.0000099 magnetization      99.2576988
 augmentation part      301.5126362 magnetization      80.0659725

 DIPCOR: dipole corrections for dipol
 direction  3 min pos   238,
 dipolmoment           0.000000      0.000000      0.341512 electrons x Angstroem
 Tr[quadrupol]    -10098.037848

 energy correction for charged system         0.000000 eV
 dipol+quadrupol energy correction           -0.005604 eV
 added-field ion interaction         -5.337991 eV  (added to PSCEN)


 Broyden mixing:
  rms(total) = 0.23441E+00    rms(broyden)= 0.23441E+00
  rms(prec ) = 0.24346E+00
  weight for this iteration     100.00

 eigenvalues of (default mixing * dielectric matrix)
  average eigenvalue GAMMA=   0.3010
  0.6638  0.6638  0.3806  0.1532  0.0528  0.0858  0.1073

 Free energy of the ion-electron system (eV)
  ---------------------------------------------------
  alpha Z        PSCENC =      1569.49808517
  Ewald energy   TEWEN  =    174617.10601979
  -Hartree energ DENC   =   -222584.96659750
  -exchange      EXHF   =         0.00000000
  -V(xc)+E(xc)   XCENC  =       862.65573930
  PAW double counting   =     55200.93096557   -56751.52161778
  entropy T*S    EENTRO =         0.06311120
  eigenvalues    EBANDS =     -1790.67485776
  atomic energy  EATOM  =     48376.37827422
  Solvation  Ediel_sol  =         0.00000000
  ---------------------------------------------------
  free energy    TOTEN  =      -500.53087779 eV

  energy without entropy =     -500.59398899  energy(sigma->0) =     -500.55191485


--------------------------------------------------------------------------------------------------------




--------------------------------------- Iteration      1(   9)  ---------------------------------------


    POTLOK:  cpu time    0.4206: real time    0.4281
    SETDIJ:  cpu time    0.0249: real time    0.0249
    EDDIAG:  cpu time    5.2183: real time    5.2199
  RMM-DIIS:  cpu time   19.5175: real time   19.5381
    ORTHCH:  cpu time    1.4220: real time    1.4222
       DOS:  cpu time    0.0086: real time    0.0086
    CHARGE:  cpu time    1.2740: real time    1.2744
    MIXING:  cpu time    0.0074: real time    0.0075
    --------------------------------------------
      LOOP:  cpu time   27.8926: real time   27.9237

 eigenvalue-minimisations  :  8018
 total energy-change (2. order) :-0.4645096E-02  (-0.2659169E-02)
 number of electron     581.0000099 magnetization      99.2527919
 augmentation part      301.5286164 magnetization      80.0394837

 DIPCOR: dipole corrections for dipol
 direction  3 min pos   239,
 dipolmoment           0.000000      0.000000      0.343199 electrons x Angstroem
 Tr[quadrupol]    -10098.117721

 energy correction for charged system         0.000000 eV
 dipol+quadrupol energy correction           -0.005659 eV
 added-field ion interaction         -4.090906 eV  (added to PSCEN)


 Broyden mixing:
  rms(total) = 0.22077E+00    rms(broyden)= 0.22076E+00
  rms(prec ) = 0.23085E+00
  weight for this iteration     100.00

 eigenvalues of (default mixing * dielectric matrix)
  average eigenvalue GAMMA=   0.3016
  0.7439  0.7439  0.4004  0.1621  0.0529  0.1263  0.0869  0.0963

 Free energy of the ion-electron system (eV)
  ---------------------------------------------------
  alpha Z        PSCENC =      1570.74511467
  Ewald energy   TEWEN  =    174617.10601979
  -Hartree energ DENC   =   -222586.26042633
  -exchange      EXHF   =         0.00000000
  -V(xc)+E(xc)   XCENC  =       862.79165622
  PAW double counting   =     55175.49313929   -56725.58058052
  entropy T*S    EENTRO =         0.06289308
  eigenvalues    EBANDS =     -1791.27161331
  atomic energy  EATOM  =     48376.37827422
  Solvation  Ediel_sol  =         0.00000000
  ---------------------------------------------------
  free energy    TOTEN  =      -500.53552289 eV

  energy without entropy =     -500.59841597  energy(sigma->0) =     -500.55648725


--------------------------------------------------------------------------------------------------------




--------------------------------------- Iteration      1(  10)  ---------------------------------------


    POTLOK:  cpu time    0.4223: real time    0.4301
    SETDIJ:  cpu time    0.0248: real time    0.0248
    EDDIAG:  cpu time    5.2152: real time    5.2183
  RMM-DIIS:  cpu time   19.1695: real time   19.1941
    ORTHCH:  cpu time    1.4257: real time    1.4261
       DOS:  cpu time    0.0086: real time    0.0086
    CHARGE:  cpu time    1.2743: real time    1.2746
    MIXING:  cpu time    0.0075: real time    0.0075
    --------------------------------------------
      LOOP:  cpu time   27.5480: real time   27.5842

 eigenvalue-minimisations  :  7893
 total energy-change (2. order) : 0.5416760E-02  (-0.1094082E-02)
 number of electron     581.0000099 magnetization      99.2499678
 augmentation part      301.5413594 magnetization      80.0534898

 DIPCOR: dipole corrections for dipol
 direction  3 min pos   241,
 dipolmoment           0.000000      0.000000      0.344037 electrons x Angstroem
 Tr[quadrupol]    -10098.237519

 energy correction for charged system         0.000000 eV
 dipol+quadrupol energy correction           -0.005687 eV
 added-field ion interaction         -1.547768 eV  (added to PSCEN)


 Broyden mixing:
  rms(total) = 0.17171E+00    rms(broyden)= 0.17171E+00
  rms(prec ) = 0.17591E+00
  weight for this iteration     100.00

 eigenvalues of (default mixing * dielectric matrix)
  average eigenvalue GAMMA=   0.3132
  0.8166  0.8166  0.3314  0.3314  0.1541  0.1316  0.0528  0.0994  0.0848

 Free energy of the ion-electron system (eV)
  ---------------------------------------------------
  alpha Z        PSCENC =      1573.28822406
  Ewald energy   TEWEN  =    174617.10601979
  -Hartree energ DENC   =   -222587.45045904
  -exchange      EXHF   =         0.00000000
  -V(xc)+E(xc)   XCENC  =       862.89946259
  PAW double counting   =     55156.22765177   -56705.94823802
  entropy T*S    EENTRO =         0.06401959
  eigenvalues    EBANDS =     -1793.09506110
  atomic energy  EATOM  =     48376.37827422
  Solvation  Ediel_sol  =         0.00000000
  ---------------------------------------------------
  free energy    TOTEN  =      -500.53010613 eV

  energy without entropy =     -500.59412572  energy(sigma->0) =     -500.55144599


--------------------------------------------------------------------------------------------------------




--------------------------------------- Iteration      1(  11)  ---------------------------------------


    POTLOK:  cpu time    0.4227: real time    0.4301
    SETDIJ:  cpu time    0.0249: real time    0.0249
    EDDIAG:  cpu time    5.2110: real time    5.2138
  RMM-DIIS:  cpu time   19.3545: real time   19.3740
    ORTHCH:  cpu time    1.4239: real time    1.4243
       DOS:  cpu time    0.0088: real time    0.0088
    CHARGE:  cpu time    1.2775: real time    1.2778
    MIXING:  cpu time    0.0079: real time    0.0079
    --------------------------------------------
      LOOP:  cpu time   27.7311: real time   27.7615

 eigenvalue-minimisations  :  7917
 total energy-change (2. order) :-0.4100263E-03  (-0.6333890E-03)
 number of electron     581.0000099 magnetization      99.2386447
 augmentation part      301.5561770 magnetization      80.1012808

 DIPCOR: dipole corrections for dipol
 direction  3 min pos   244,
 dipolmoment           0.000000      0.000000      0.343842 electrons x Angstroem
 Tr[quadrupol]    -10098.401491

 energy correction for charged system         0.000000 eV
 dipol+quadrupol energy correction           -0.005681 eV
 added-field ion interaction          2.280631 eV  (added to PSCEN)


 Broyden mixing:
  rms(total) = 0.16021E+00    rms(broyden)= 0.16021E+00
  rms(prec ) = 0.16596E+00
  weight for this iteration     100.00

 eigenvalues of (default mixing * dielectric matrix)
  average eigenvalue GAMMA=   0.3593
  1.0097  1.0097  0.4621  0.4621  0.1533  0.1533  0.0529  0.1095  0.0858  0.0942

 Free energy of the ion-electron system (eV)
  ---------------------------------------------------
  alpha Z        PSCENC =      1577.11662994
  Ewald energy   TEWEN  =    174617.10601979
  -Hartree energ DENC   =   -222588.28420664
  -exchange      EXHF   =         0.00000000
  -V(xc)+E(xc)   XCENC  =       862.96003454
  PAW double counting   =     55139.09991332   -56688.37828909
  entropy T*S    EENTRO =         0.06340618
  eigenvalues    EBANDS =     -1796.59229842
  atomic energy  EATOM  =     48376.37827422
  Solvation  Ediel_sol  =         0.00000000
  ---------------------------------------------------
  free energy    TOTEN  =      -500.53051615 eV

  energy without entropy =     -500.59392233  energy(sigma->0) =     -500.55165154


--------------------------------------------------------------------------------------------------------




--------------------------------------- Iteration      1(  12)  ---------------------------------------


    POTLOK:  cpu time    0.4207: real time    0.4294
    SETDIJ:  cpu time    0.0249: real time    0.0249
    EDDIAG:  cpu time    5.2167: real time    5.2190
  RMM-DIIS:  cpu time   19.1364: real time   19.1515
    ORTHCH:  cpu time    1.4132: real time    1.4188
       DOS:  cpu time    0.0087: real time    0.0087
    CHARGE:  cpu time    1.2743: real time    1.2745
    MIXING:  cpu time    0.0080: real time    0.0080
    --------------------------------------------
      LOOP:  cpu time   27.5029: real time   27.5348

 eigenvalue-minimisations  :  7865
 total energy-change (2. order) : 0.4170556E-02  (-0.6547230E-03)
 number of electron     581.0000099 magnetization      99.2334393
 augmentation part      301.6408253 magnetization      80.0978206

 DIPCOR: dipole corrections for dipol
 direction  3 min pos   244,
 dipolmoment           0.000000      0.000000      0.344428 electrons x Angstroem
 Tr[quadrupol]    -10098.410479

 energy correction for charged system         0.000000 eV
 dipol+quadrupol energy correction           -0.005700 eV
 added-field ion interaction          2.284513 eV  (added to PSCEN)


 Broyden mixing:
  rms(total) = 0.11654E+00    rms(broyden)= 0.11654E+00
  rms(prec ) = 0.12053E+00
  weight for this iteration     100.00

 eigenvalues of (default mixing * dielectric matrix)
  average eigenvalue GAMMA=   0.3641
  1.0941  1.0941  0.4733  0.4733  0.1973  0.1973  0.0529  0.1265  0.1156  0.0848
  0.0957

 Free energy of the ion-electron system (eV)
  ---------------------------------------------------
  alpha Z        PSCENC =      1577.12049252
  Ewald energy   TEWEN  =    174617.10601979
  -Hartree energ DENC   =   -222588.30847481
  -exchange      EXHF   =         0.00000000
  -V(xc)+E(xc)   XCENC  =       863.06535799
  PAW double counting   =     55098.17295767   -56646.32992031
  entropy T*S    EENTRO =         0.06311629
  eigenvalues    EBANDS =     -1797.79416895
  atomic energy  EATOM  =     48376.37827422
  Solvation  Ediel_sol  =         0.00000000
  ---------------------------------------------------
  free energy    TOTEN  =      -500.52634560 eV

  energy without entropy =     -500.58946188  energy(sigma->0) =     -500.54738436


--------------------------------------------------------------------------------------------------------




--------------------------------------- Iteration      1(  13)  ---------------------------------------


    POTLOK:  cpu time    0.4226: real time    0.4314
    SETDIJ:  cpu time    0.0249: real time    0.0249
    EDDIAG:  cpu time    5.2188: real time    5.2202
  RMM-DIIS:  cpu time   19.0833: real time   19.1001
    ORTHCH:  cpu time    1.4192: real time    1.4195
       DOS:  cpu time    0.0085: real time    0.0085
    CHARGE:  cpu time    1.2748: real time    1.2751
    MIXING:  cpu time    0.0081: real time    0.0081
    --------------------------------------------
      LOOP:  cpu time   27.4603: real time   27.4878

 eigenvalue-minimisations  :  7831
 total energy-change (2. order) : 0.1761211E-02  (-0.3333347E-03)
 number of electron     581.0000099 magnetization      99.2206284
 augmentation part      301.6763667 magnetization      80.1093246

 DIPCOR: dipole corrections for dipol
 direction  3 min pos   243,
 dipolmoment           0.000000      0.000000      0.343954 electrons x Angstroem
 Tr[quadrupol]    -10098.387192

 energy correction for charged system         0.000000 eV
 dipol+quadrupol energy correction           -0.005684 eV
 added-field ion interaction          1.005115 eV  (added to PSCEN)


 Broyden mixing:
  rms(total) = 0.96741E-01    rms(broyden)= 0.96741E-01
  rms(prec ) = 0.99858E-01
  weight for this iteration     100.00

 eigenvalues of (default mixing * dielectric matrix)
  average eigenvalue GAMMA=   0.4201
  1.2937  1.2937  0.5979  0.5979  0.4730  0.1731  0.0529  0.1425  0.1302  0.1068
  0.0852  0.0943

 Free energy of the ion-electron system (eV)
  ---------------------------------------------------
  alpha Z        PSCENC =      1575.84111007
  Ewald energy   TEWEN  =    174617.10601979
  -Hartree energ DENC   =   -222588.80036006
[...]
   0.118E+02 -.271E+02 0.892E+03   -.117E+02 0.275E+02 -.892E+03   -.430E-01 -.150E+00 0.258E+00   0.867E-03 -.408E-02 -.163E+00
   0.345E+02 -.680E+02 -.492E+03   -.342E+02 0.682E+02 0.492E+03   -.292E+00 -.221E+00 0.970E-01   0.282E-02 0.190E-02 -.165E+00
   -.535E+01 0.831E+01 0.215E+04   0.540E+01 -.820E+01 -.215E+04   0.469E-01 0.145E+00 -.210E+01   0.193E-02 -.185E-02 -.467E-01
   0.918E+02 -.396E+02 -.184E+04   -.939E+02 0.408E+02 0.183E+04   0.211E+01 -.120E+01 0.259E+01   -.155E-03 0.488E-03 -.450E-01
   -.365E+02 0.503E+01 0.852E+03   0.367E+02 -.435E+01 -.852E+03   0.128E+00 -.910E-01 0.328E-01   0.602E-04 -.633E-02 -.166E+00
   0.260E+01 -.698E+01 0.839E+03   -.252E+01 0.737E+01 -.839E+03   0.106E+00 -.209E+00 0.131E+00   0.580E-03 -.287E-03 -.171E+00
   -.108E+02 -.155E+02 -.498E+03   0.106E+02 0.157E+02 0.499E+03   0.105E+00 -.163E+00 -.231E+00   -.413E-02 -.134E-02 -.168E+00
   0.272E+02 -.386E+02 -.433E+03   -.274E+02 0.388E+02 0.432E+03   0.131E+00 -.200E+00 0.526E+00   0.170E-02 0.642E-03 -.169E+00
   -.119E+02 0.322E+02 0.813E+03   0.121E+02 -.330E+02 -.812E+03   -.239E+00 0.169E+00 -.363E+00   -.104E-02 -.211E-02 -.167E+00
   0.802E+01 -.322E+00 0.823E+03   -.743E+01 0.312E+00 -.823E+03   0.457E-01 -.559E-04 -.158E+00   -.415E-02 -.409E-02 -.161E+00
   0.200E+02 0.829E+01 -.515E+03   -.199E+02 -.785E+01 0.516E+03   -.173E+00 -.452E+00 -.539E+00   0.176E-02 0.486E-03 -.163E+00
   -.348E+02 0.360E+02 -.549E+03   0.348E+02 -.361E+02 0.551E+03   -.291E-01 0.468E-01 -.914E+00   -.206E-02 -.350E-02 -.164E+00
   -.134E+02 0.395E+02 -.497E+03   0.133E+02 -.394E+02 0.498E+03   0.128E+00 -.194E-01 -.257E+00   0.796E-03 0.131E-02 -.166E+00
   0.798E+01 0.294E+02 0.265E+04   -.812E+01 -.297E+02 -.265E+04   0.118E+00 0.430E+00 -.543E+00   -.930E-02 -.275E-02 -.578E-01
   0.231E+02 0.193E+03 -.230E+04   -.228E+02 -.196E+03 0.230E+04   -.307E+00 0.302E+01 0.115E+01   -.857E-03 -.163E-02 -.552E-01
   -.115E+02 0.413E+01 0.267E+04   0.118E+02 -.417E+01 -.267E+04   -.548E+00 0.812E-01 -.899E+00   0.918E-02 -.708E-03 -.644E-01
   -.161E+03 -.622E+02 -.230E+04   0.163E+03 0.635E+02 0.230E+04   -.221E+01 -.136E+01 0.279E+00   -.502E-03 0.127E-02 -.624E-01
   0.132E+02 -.291E+02 0.263E+04   -.133E+02 0.293E+02 -.263E+04   0.889E-01 -.263E+00 -.128E+01   -.863E-02 0.920E-02 -.579E-01
   0.467E+02 -.273E+02 -.218E+04   -.474E+02 0.273E+02 0.218E+04   0.692E+00 0.383E-02 0.270E+01   -.155E-02 -.302E-02 -.540E-01
   0.112E+02 -.163E+02 0.266E+04   -.113E+02 0.165E+02 -.265E+04   0.608E-01 -.881E-01 -.140E+01   0.912E-03 0.332E-02 -.627E-01
   0.780E+01 0.214E+02 -.210E+04   -.749E+01 -.216E+02 0.210E+04   -.306E+00 0.202E+00 0.243E+01   0.280E-02 -.365E-03 -.622E-01
   -.193E+02 0.100E+03 -.579E+03   0.192E+02 -.101E+03 0.578E+03   0.896E-01 0.424E+00 0.671E+00   0.214E-02 0.249E-03 -.203E+00
   0.116E+02 -.365E+02 0.111E+04   -.118E+02 0.362E+02 -.111E+04   0.259E-01 0.148E+00 -.314E+00   0.435E-02 0.616E-02 -.205E+00
   -.794E+02 -.107E+02 -.582E+03   0.794E+02 0.104E+02 0.583E+03   -.307E-01 0.297E+00 -.712E+00   0.234E-02 0.407E-02 -.209E+00
   0.614E+02 -.572E+02 -.532E+03   -.615E+02 0.571E+02 0.532E+03   0.147E+00 0.176E+00 0.465E+00   0.144E-02 0.160E-02 -.202E+00
   -.584E+02 -.227E+02 -.605E+03   0.585E+02 0.230E+02 0.604E+03   -.100E+00 -.290E+00 0.471E+00   -.444E-03 -.277E-03 -.209E+00
   0.218E+02 0.990E+01 0.106E+04   -.217E+02 -.996E+01 -.106E+04   0.893E-01 -.978E-02 -.283E+00   0.129E-02 -.580E-02 -.205E+00
   0.352E+02 -.121E+02 -.608E+03   -.353E+02 0.122E+02 0.608E+03   0.104E+00 -.710E-01 0.482E+00   -.135E-03 -.458E-02 -.204E+00
   -.229E+02 0.496E+02 0.108E+04   0.226E+02 -.497E+02 -.108E+04   -.110E-01 0.220E+00 -.142E-01   0.499E-02 -.427E-02 -.210E+00
   0.763E+01 -.729E+02 -.183E+04   -.698E+01 0.732E+02 0.186E+04   -.652E+00 -.293E+00 -.270E+02   0.171E-02 0.308E-02 0.285E-01
   0.857E+02 0.674E+01 -.191E+04   -.850E+02 -.720E+01 0.194E+04   -.692E+00 0.449E+00 -.284E+02   -.778E-03 -.290E-02 0.286E-01
   -.120E+02 -.969E+00 -.187E+04   0.125E+02 0.540E+00 0.189E+04   -.506E+00 0.429E+00 -.262E+02   -.347E-03 -.475E-03 0.291E-01
   -.833E+02 0.765E+02 -.189E+04   0.844E+02 -.741E+02 0.192E+04   -.111E+01 -.248E+01 -.253E+02   0.257E-02 0.286E-02 0.282E-01
   0.824E+02 -.440E+02 -.172E+04   -.931E+02 0.432E+02 0.172E+04   0.107E+02 0.863E+00 0.418E+01   -.944E-03 -.187E-02 0.295E-01
   -.853E+01 -.329E+02 -.178E+04   -.154E+02 0.528E+02 0.181E+04   0.239E+02 -.199E+02 -.305E+02   0.207E-02 -.224E-03 0.534E-01
   -.721E+02 0.444E+02 -.282E+03   0.786E+02 -.488E+02 0.281E+03   -.657E+01 0.437E+01 0.121E+01   0.133E-02 -.713E-03 0.806E-02
 -----------------------------------------------------------------------------------------------
   -.244E+02 0.163E+02 0.134E+03   0.398E-12 0.227E-12 -.210E-11   0.244E+02 -.163E+02 -.127E+03   0.641E-02 -.103E-02 -.705E+01
 
 
 POSITION                                       TOTAL-FORCE (eV/Angst)
 -----------------------------------------------------------------------------------
     -5.03208      8.74992      2.05921        -0.244839      0.160747     -0.072955
      5.04047      8.71599      8.08761         0.020381      0.024035     -0.002003
      0.00574      8.72607      2.04466        -0.195030      0.446325      0.033037
      0.05009      8.67892      8.04363         0.026052      0.010757      0.006397
      2.47665      8.72592      2.00821         0.321629      0.258745      0.184520
      2.56725      8.74158      8.21639         0.003083      0.001043     -0.008356
      1.23891      2.21748      2.05880         0.332682     -0.362876     -0.118073
      1.25845      2.10974      8.12085         0.002953      0.029306      0.006377
      0.08074      1.41419      4.05321        -0.917406      0.493717     -0.036112
      2.49330      1.45451      4.14829         0.391899      0.241146     -0.702072
      1.27100      0.68287      6.11405        -0.020804      0.000103      0.012377
      5.06166      1.44930      4.13498        -0.445020      0.212215     -0.420640
      3.76421      0.71207      6.16846         0.017618      0.007090     -0.009862
      7.51557      1.45812      4.11001         0.565828     -0.251691     -0.560260
      6.32939      0.70776      6.14298        -0.017305      0.012509     -0.009467
     -2.55062      4.47399      2.00995         0.240029     -0.780305      0.287161
     -2.49920      4.39655      7.97883         0.015105     -0.008264      0.008284
      0.03014      4.42905      2.07020        -0.430074     -0.482110     -0.265420
      0.02367      4.28123      8.18250         0.012084     -0.030017      0.009757
      2.50847      4.40516      2.07435         0.289351     -0.331145     -0.073535
      2.54318      4.32181      7.97820        -0.000908      0.030075     -0.027704
      1.32139      3.64145      4.02771         0.028818     -0.357892      0.445610
      5.08382      4.44890      2.04815        -0.396056     -0.706542     -0.089022
      5.07363      4.32376      8.28859         0.015157     -0.001614     -0.013847
      3.79377      3.69800      4.13071        -0.336944     -0.556985     -0.413012
      2.50733      2.89661      6.07700         0.007518      0.016878      0.002994
      6.25293      3.64956      4.08305         0.550072      0.198859     -0.021950
      5.07598      2.92989      6.19942        -0.031120      0.012899     -0.008176
      6.25194      6.54167      2.03547         0.360654      0.354187      0.268232
     -3.75769      6.56974      8.16069         0.018706      0.010005     -0.021530
     -1.23133      6.52951      2.06361        -0.190447      0.383885     -0.317525
     -1.25905      6.54219      8.23600        -0.018487      0.034992      0.020449
     -2.52172      5.87475      4.08745        -0.753239     -0.118001      0.295184
      1.28426      6.55944      2.07409         0.044891      0.229307     -0.272718
      1.31359      6.52897      8.17943         0.022815      0.031141     -0.002707
     -0.00626      5.79145      4.04458         0.058500      0.279654      0.413431
     -1.23895      5.08595      6.07511        -0.022916      0.000481     -0.000422
      3.77628      6.55571      2.00000         0.100839      0.253441      0.088532
      3.75970      6.57627      8.22106        -0.002413      0.000171      0.004140
      2.52387      5.78801      4.07310         0.377385      0.576867      0.216382
      5.06734      5.79704      4.10517         0.187747      0.173801      0.033146
      3.85643      5.11030      6.09777        -0.003526     -0.006919      0.009364
      6.32467      5.13642      5.98333        -0.001546     -0.014203      0.029476
     -3.76296      8.02446      4.11956        -0.053416     -0.593623     -0.166656
     -1.33707      8.05044      4.10308         0.634075     -0.016092      0.098657
     -2.52331      7.24207      6.16333        -0.023401     -0.018332      0.027126
      2.52759      7.27485      6.13837         0.024229      0.012851     -0.033447
      5.06818      7.26654      6.06717         0.022830      0.003031     -0.017943
     -2.52690      8.74056      2.03303        -0.034225      0.103125      0.403893
     -2.49634      8.67516      8.21809        -0.012791      0.000460     -0.006198
     -1.24953      2.18697      2.05404        -0.228097      0.040143      0.397098
     -1.20246      2.20210      8.11296         0.012090     -0.010045      0.000959
      3.77687      2.20348      2.02824         0.036675     -0.004096      0.675785
      3.78130      2.11676      8.27385         0.011166      0.018184     -0.008386
      6.31052      2.19548      2.03586        -0.031725      0.041244      0.229579
      6.37287      2.16931      8.17826         0.010063     -0.005037      0.008616
      8.86532      0.73828      6.08407         0.014979     -0.003733     -0.015950
     -1.27338      3.65234      4.08853        -0.129314     -0.161683     -0.362640
      0.01048      2.91021      6.09653        -0.001829     -0.014685     -0.036023
      7.56106      2.90045      6.07430        -0.014421      0.012114     -0.015717
      1.25358      5.08647      6.07350         0.019683     -0.000120     -0.003330
      1.25660      8.01495      4.09194         0.108433     -0.072570      0.057792
     -0.00408      7.24430      6.07931        -0.003149      0.004543     -0.005868
      3.80919      8.00883      4.09175        -0.305045      0.103051     -0.152180
      5.07228      5.89627      9.30980         0.001178      0.030686      0.029706
      2.35643      1.40578      9.34062         0.014562     -0.010494      0.013018
      0.05173      5.75707      9.31753        -0.016309     -0.000272      0.005165
      7.73651      1.40004      9.35221        -0.010228      0.003235     -0.014756
      5.18297      2.85673      9.55000        -0.005883      0.014178     -0.008160
      5.67740      2.78931     11.00858        -0.013359      0.028069     -0.025298
      6.48946      2.24665     10.84195        -0.010485      0.020053      0.017678
 -----------------------------------------------------------------------------------
    total drift:                                0.003078     -0.009277      0.013993


--------------------------------------------------------------------------------------------------------



  FREE ENERGIE OF THE ION-ELECTRON SYSTEM (eV)
  ---------------------------------------------------
  free  energy   TOTEN  =      -515.48095648 eV

  energy  without entropy=     -515.54654407  energy(sigma->0) =     -515.50281901
 


--------------------------------------------------------------------------------------------------------


    POTLOK:  cpu time    0.4445: real time    0.4448


--------------------------------------------------------------------------------------------------------


 stress matrix after NEB project (eV)
    -30.48749     -0.33858      0.25114
     -0.33858    -30.46361      1.93658
      0.25114      1.93658     -3.48670
  FORCES: max atom, RMS     0.044547    0.020556
  FORCE total and by dimension    0.173210    0.036023
  Stress total and by dimension   43.330496   30.487494


--------------------------------------------------------------------------------------------------------


  
 reached required accuracy - stopping structural energy minimisation
 writing wavefunctions
     LOOP+:  cpu time 1393.5588: real time 1421.1775
    4ORBIT:  cpu time    0.0000: real time    0.0000
 


 total charge     
 
# of ion       s       p       d       tot
------------------------------------------
    1        0.476   0.400   6.170   7.046
    2        0.465   0.402   6.199   7.067
    3        0.471   0.392   6.146   7.010
    4        0.476   0.405   6.200   7.081
    5        0.467   0.385   6.152   7.004
    6        0.489   0.541   6.231   7.261
    7        0.478   0.405   6.192   7.074
    8        0.503   0.552   6.274   7.329
    9        0.486   0.520   6.225   7.231
   10        0.503   0.553   6.222   7.278
   11        0.495   0.544   6.254   7.294
   12        0.482   0.510   6.219   7.211
   13        0.485   0.524   6.224   7.233
   14        0.475   0.491   6.186   7.152
   15        0.482   0.522   6.235   7.239
   16        0.474   0.393   6.160   7.026
   17        0.477   0.416   6.191   7.085
   18        0.491   0.425   6.211   7.128
   19        0.473   0.509   6.212   7.194
   20        0.494   0.428   6.223   7.145
   21        0.480   0.421   6.201   7.102
   22        0.505   0.563   6.235   7.304
   23        0.487   0.418   6.192   7.097
   24        0.441   0.546   6.244   7.230
   25        0.503   0.561   6.216   7.280
   26        0.495   0.544   6.231   7.270
   27        0.491   0.533   6.241   7.266
   28        0.477   0.521   6.206   7.204
   29        0.488   0.424   6.191   7.103
   30        0.481   0.531   6.241   7.254
   31        0.488   0.423   6.206   7.118
   32        0.469   0.507   6.216   7.192
   33        0.501   0.560   6.258   7.319
   34        0.494   0.449   6.205   7.149
   35        0.473   0.516   6.230   7.220
   36        0.495   0.537   6.241   7.274
   37        0.489   0.526   6.228   7.244
   38        0.480   0.418   6.182   7.079
   39        0.485   0.531   6.247   7.263
   40        0.494   0.535   6.250   7.278
   41        0.507   0.566   6.315   7.387
   42        0.497   0.545   6.262   7.304
   43        0.513   0.575   6.231   7.320
   44        0.502   0.560   6.239   7.300
   45        0.488   0.525   6.218   7.232
   46        0.497   0.555   6.245   7.297
   47        0.477   0.515   6.186   7.177
   48        0.495   0.542   6.258   7.294
   49        0.503   0.385   8.312   9.200
   50        0.512   0.517   8.333   9.362
   51        0.495   0.378   8.299   9.172
   52        0.504   0.514   8.328   9.345
   53        0.485   0.357   8.318   9.160
   54        0.453   0.499   8.349   9.301
   55        0.500   0.376   8.306   9.181
   56        0.469   0.556   8.349   9.373
   57        0.505   0.513   8.320   9.339
   58        0.505   0.505   8.323   9.333
   59        0.510   0.523   8.314   9.346
   60        0.516   0.524   8.325   9.365
   61        0.522   0.539   8.325   9.387
   62        0.518   0.528   8.314   9.360
   63        0.514   0.535   8.312   9.361
   64        0.510   0.514   8.309   9.332
   65        1.582   3.381   0.000   4.963
   66        1.584   3.345   0.000   4.929
   67        1.579   3.382   0.000   4.961
   68        1.578   3.355   0.000   4.933
   69        1.582   3.302   0.000   4.885
   70        1.596   3.341   0.000   4.938
   71        0.601   0.113   0.000   0.714
--------------------------------------------------
tot         41.458  51.747 431.682 524.887
 


 magnetization (x)
 
# of ion       s       p       d       tot
------------------------------------------
    1        0.003  -0.008   2.633   2.627
    2        0.003  -0.006   2.814   2.811
    3        0.001  -0.008   2.785   2.778
    4        0.001  -0.002   2.861   2.861
    5        0.002  -0.009   2.773   2.765
    6       -0.002  -0.012   2.407   2.393
    7        0.007  -0.002   2.460   2.465
    8        0.002  -0.011   2.176   2.168
    9        0.008  -0.012   2.315   2.311
   10       -0.029  -0.042  -1.872  -1.943
   11       -0.004  -0.021   2.122   2.097
   12       -0.002  -0.023   2.365   2.340
   13       -0.006  -0.032   2.462   2.424
   14        0.002  -0.017   2.683   2.668
   15       -0.009  -0.029   2.493   2.456
   16        0.006  -0.009   2.696   2.692
   17        0.005  -0.007   2.828   2.826
   18       -0.001  -0.020   2.513   2.492
   19        0.006  -0.002   2.556   2.560
   20       -0.001  -0.009   2.331   2.321
   21       -0.001  -0.012   2.830   2.817
   22       -0.032  -0.055  -1.815  -1.902
   23        0.001  -0.012   2.571   2.559
   24        0.003   0.009   2.324   2.336
   25       -0.033  -0.052  -1.950  -2.034
   26        0.006  -0.012   2.226   2.220
   27        0.007  -0.011   2.204   2.199
   28        0.003  -0.015   2.366   2.355
   29        0.007  -0.014   2.555   2.548
   30        0.006  -0.004   2.315   2.317
   31       -0.005  -0.019   2.531   2.507
   32        0.005  -0.006   2.527   2.526
   33       -0.030  -0.049  -1.477  -1.556
   34       -0.010  -0.038   2.579   2.531
   35        0.003  -0.012   2.458   2.450
   36       -0.002  -0.023   2.417   2.392
   37        0.001  -0.017   2.451   2.435
   38       -0.006  -0.026   2.614   2.582
   39       -0.003  -0.020   2.272   2.249
   40        0.001  -0.021   2.242   2.223
   41       -0.012  -0.031  -0.179  -0.222
   42       -0.004  -0.023   1.987   1.959
   43       -0.037  -0.064  -1.873  -1.975
   44       -0.029  -0.050  -1.714  -1.793
   45        0.006  -0.017   2.342   2.331
   46        0.003  -0.006   1.996   1.993
   47        0.001  -0.017   2.530   2.514
   48       -0.002  -0.024   2.054   2.029
   49       -0.026  -0.029   0.495   0.440
   50       -0.023  -0.023   0.542   0.496
   51       -0.032  -0.033   0.705   0.641
   52       -0.017  -0.020   0.607   0.570
   53       -0.021  -0.019   0.396   0.356
   54       -0.015  -0.018   0.543   0.511
   55       -0.028  -0.029   0.702   0.646
   56       -0.018  -0.023   0.562   0.521
   57       -0.026  -0.053   0.734   0.655
   58       -0.018  -0.042   0.559   0.499
   59       -0.013  -0.026   0.500   0.461
   60       -0.019  -0.034   0.619   0.566
   61       -0.024  -0.059   0.661   0.577
   62       -0.026  -0.072   0.723   0.625
   63       -0.032  -0.063   0.782   0.688
   64       -0.018  -0.050   0.616   0.548
   65        0.003   0.075   0.000   0.078
   66        0.002   0.059   0.000   0.061
   67        0.004   0.107   0.000   0.111
   68        0.003   0.092   0.000   0.094
   69        0.013   0.097   0.000   0.110
   70        0.001   0.022   0.000   0.023
   71        0.001   0.000   0.000   0.001
--------------------------------------------------
tot         -0.487  -1.065  99.531  97.979
 

 total amount of memory used by VASP MPI-rank0   114357. kBytes
=======================================================================

   base      :      30000. kBytes
   nonlr-proj:      14267. kBytes
   fftplans  :       6403. kBytes
   grid      :      18928. kBytes
   one-center:         93. kBytes
   wavefun   :      44666. kBytes
 
  
  
 General timing and accounting informations for this job:
 ========================================================
  
                  Total CPU time used (sec):     1479.233
                            User time (sec):     1346.423
                          System time (sec):      132.809
                         Elapsed time (sec):     1509.181
  
                   Maximum memory used (kb):      349832.
                   Average memory used (kb):           0.
  
                          Minor page faults:     24759601
                          Major page faults:            0
                 Voluntary context switches:         3736
