       N       E                     dE             d eps       ncg     rms          rms(c)
DAV:   1     0.463416557396E+04    0.46342E+04   -0.26944E+05  8280   0.163E+03
DAV:   2     0.905137646678E+02   -0.45437E+04   -0.42783E+04  8280   0.359E+02
DAV:   3    -0.345722987898E+03   -0.43624E+03   -0.37491E+03  8523   0.151E+02
DAV:   4    -0.364197065251E+03   -0.18474E+02   -0.18118E+02  8829   0.340E+01
DAV:   5    -0.364555215696E+03   -0.35815E+00   -0.35798E+00  9855   0.365E+00    0.304E+01
RMM:   6    -0.423307659877E+03   -0.58752E+02   -0.24322E+01  8330   0.115E+01    0.972E+01
RMM:   7    -0.410897753434E+03    0.12410E+02   -0.33232E+01  8325   0.142E+01    0.895E+01
RMM:   8    -0.377219191459E+03    0.33679E+02   -0.18763E+01  8348   0.108E+01    0.584E+01
RMM:   9    -0.361948190177E+03    0.15271E+02   -0.10913E+01  8355   0.876E+00    0.298E+01
RMM:  10    -0.360543989295E+03    0.14042E+01   -0.62439E+00  8358   0.626E+00    0.253E+01
RMM:  11    -0.360895797882E+03   -0.35181E+00   -0.40158E+00  8351   0.496E+00    0.305E+01
RMM:  12    -0.358524495818E+03    0.23713E+01   -0.29961E+00  8354   0.446E+00    0.149E+01
RMM:  13    -0.358619233754E+03   -0.94738E-01   -0.19214E+00  8362   0.334E+00    0.184E+01
RMM:  14    -0.359778584562E+03   -0.11594E+01   -0.18310E+00  8355   0.338E+00    0.172E+01
RMM:  15    -0.359397940124E+03    0.38064E+00   -0.13842E+00  8353   0.300E+00    0.112E+01
RMM:  16    -0.360882963815E+03   -0.14850E+01   -0.88194E-01  8343   0.229E+00    0.134E+01
RMM:  17    -0.361371463916E+03   -0.48850E+00   -0.62732E-01  8340   0.196E+00    0.911E+00
RMM:  18    -0.361880122193E+03   -0.50866E+00   -0.31218E-01  8349   0.135E+00    0.896E+00
RMM:  19    -0.362914878109E+03   -0.10348E+01   -0.35561E-01  8324   0.125E+00    0.730E+00
RMM:  20    -0.363736401725E+03   -0.82152E+00   -0.27639E-01  8325   0.115E+00    0.440E+00
RMM:  21    -0.364573083032E+03   -0.83668E+00   -0.23493E-01  8335   0.102E+00    0.560E+00
RMM:  22    -0.365156651672E+03   -0.58357E+00   -0.20410E-01  8310   0.849E-01    0.399E+00
RMM:  23    -0.365314015632E+03   -0.15736E+00   -0.50648E-02  8341   0.479E-01    0.282E+00
RMM:  24    -0.366541613883E+03   -0.12276E+01   -0.39498E-01  8306   0.839E-01    0.362E+00
RMM:  25    -0.367081804046E+03   -0.54019E+00   -0.17643E-01  8311   0.709E-01    0.218E+00
RMM:  26    -0.367698641363E+03   -0.61684E+00   -0.14220E-01  8314   0.622E-01    0.366E+00
RMM:  27    -0.368095257919E+03   -0.39662E+00   -0.89552E-02  8317   0.512E-01    0.197E+00
RMM:  28    -0.368241597042E+03   -0.14634E+00   -0.31202E-02  8334   0.358E-01    0.271E+00
RMM:  29    -0.368413546627E+03   -0.17195E+00   -0.40077E-02  8310   0.344E-01    0.210E+00
RMM:  30    -0.368504147358E+03   -0.90601E-01   -0.34914E-02  8311   0.349E-01    0.201E+00
RMM:  31    -0.368541294304E+03   -0.37147E-01   -0.21709E-02  8339   0.293E-01    0.167E+00
RMM:  32    -0.368545846748E+03   -0.45524E-02   -0.18640E-02  8315   0.252E-01    0.157E+00
RMM:  33    -0.368551338550E+03   -0.54918E-02   -0.50845E-03  8338   0.157E-01    0.646E-01
RMM:  34    -0.368585887758E+03   -0.34549E-01   -0.31397E-03  8339   0.121E-01    0.110E+00
RMM:  35    -0.368635116108E+03   -0.49228E-01   -0.21993E-03  8334   0.101E-01    0.955E-01
RMM:  36    -0.368656623839E+03   -0.21508E-01   -0.17497E-03  8326   0.803E-02    0.807E-01
RMM:  37    -0.368711620816E+03   -0.54997E-01   -0.16649E-03  8337   0.830E-02    0.111E+00
RMM:  38    -0.368743189306E+03   -0.31568E-01   -0.12011E-03  8330   0.681E-02    0.231E-01
RMM:  39    -0.368779256818E+03   -0.36068E-01   -0.70116E-04  8311   0.543E-02    0.361E-01
RMM:  40    -0.368827915250E+03   -0.48658E-01   -0.84592E-04  8289   0.525E-02    0.647E-01
RMM:  41    -0.368850650192E+03   -0.22735E-01   -0.33172E-04  8285   0.385E-02    0.592E-01
RMM:  42    -0.368871871955E+03   -0.21222E-01   -0.44668E-04  8282   0.363E-02    0.202E-01
RMM:  43    -0.368885432333E+03   -0.13560E-01   -0.27251E-04  8283   0.316E-02    0.328E-01
RMM:  44    -0.368894892649E+03   -0.94603E-02   -0.20437E-04  8082   0.233E-02    0.163E-01
RMM:  45    -0.368898327202E+03   -0.34346E-02   -0.75396E-05  7389   0.173E-02    0.170E-01
RMM:  46    -0.368903875699E+03   -0.55485E-02   -0.13179E-04  7174   0.162E-02    0.128E-01
RMM:  47    -0.368905552700E+03   -0.16770E-02   -0.34678E-05  5761   0.115E-02    0.117E-01
RMM:  48    -0.368908249554E+03   -0.26969E-02   -0.85894E-05  7106   0.129E-02    0.161E-01
RMM:  49    -0.368909918539E+03   -0.16690E-02   -0.67929E-05  7152   0.135E-02    0.155E-01
RMM:  50    -0.368911516804E+03   -0.15983E-02   -0.75397E-05  7281   0.135E-02    0.219E-01
RMM:  51    -0.368912973157E+03   -0.14564E-02   -0.47248E-05  6153   0.113E-02    0.340E-01
RMM:  52    -0.368913654949E+03   -0.68179E-03   -0.15309E-05  5268   0.768E-03    0.385E-01
RMM:  53    -0.368914195222E+03   -0.54027E-03   -0.13370E-05  5350   0.643E-03    0.306E-01
RMM:  54    -0.368914294224E+03   -0.99002E-04   -0.72334E-06  5014   0.490E-03    0.242E-01
RMM:  55    -0.368914812699E+03   -0.51847E-03   -0.13884E-04  8088   0.151E-02    0.341E-01
RMM:  56    -0.368915607854E+03   -0.79516E-03   -0.42239E-05  6527   0.143E-02    0.549E-01
RMM:  57    -0.368915600610E+03    0.72448E-05   -0.85100E-06  4971   0.789E-03
   1 F= -.36891560E+03 E0= -.36890273E+03  d E =-.368916E+03  mag=    70.0852
       N       E                     dE             d eps       ncg     rms          rms(c)
DAV:   1    -0.368391136999E+03    0.52447E+00   -0.18917E+02  8406   0.206E+01    0.109E+01
RMM:   2    -0.375192663195E+03   -0.68015E+01   -0.12951E+01  8321   0.103E+01    0.393E+01
RMM:   3    -0.370551781794E+03    0.46409E+01   -0.60543E+00  8339   0.658E+00    0.163E+01
RMM:   4    -0.371653520349E+03   -0.11017E+01   -0.20738E+00  8341   0.365E+00    0.251E+01
RMM:   5    -0.371055461216E+03    0.59806E+00   -0.77868E-01  8337   0.222E+00    0.213E+01
RMM:   6    -0.369737772827E+03    0.13177E+01   -0.50069E-01  8325   0.178E+00    0.609E+00
RMM:   7    -0.369640574037E+03    0.97199E-01   -0.12973E-01  8332   0.881E-01    0.298E+00
RMM:   8    -0.369655944862E+03   -0.15371E-01   -0.67570E-02  8332   0.647E-01    0.377E+00
RMM:   9    -0.369627540113E+03    0.28405E-01   -0.47634E-02  8339   0.570E-01    0.248E+00
RMM:  10    -0.369632398712E+03   -0.48586E-02   -0.39884E-02  8332   0.492E-01    0.290E+00
RMM:  11    -0.369602811704E+03    0.29587E-01   -0.29619E-02  8342   0.437E-01    0.139E+00
RMM:  12    -0.369597707240E+03    0.51045E-02   -0.13299E-02  8336   0.290E-01    0.102E+00
RMM:  13    -0.369595497979E+03    0.22093E-02   -0.79134E-03  8338   0.222E-01    0.131E+00
RMM:  14    -0.369588597990E+03    0.69000E-02   -0.44145E-03  8337   0.174E-01    0.383E-01
RMM:  15    -0.369588341895E+03    0.25610E-03   -0.15561E-03  8332   0.977E-02    0.476E-01
RMM:  16    -0.369588059962E+03    0.28193E-03   -0.82005E-04  8311   0.742E-02    0.351E-01
RMM:  17    -0.369588102696E+03   -0.42734E-04   -0.38407E-04  8286   0.515E-02    0.162E-01
RMM:  18    -0.369589956408E+03   -0.18537E-02   -0.31445E-04  8300   0.438E-02    0.252E-01
RMM:  19    -0.369592937345E+03   -0.29809E-02   -0.26617E-04  8280   0.402E-02    0.176E-01
RMM:  20    -0.369594555172E+03   -0.16178E-02   -0.14444E-04  8267   0.296E-02    0.137E-01
RMM:  21    -0.369599033534E+03   -0.44784E-02   -0.16153E-04  8169   0.259E-02    0.156E-01
RMM:  22    -0.369601582217E+03   -0.25487E-02   -0.11621E-04  8062   0.245E-02    0.977E-02
RMM:  23    -0.369605978152E+03   -0.43959E-02   -0.18689E-04  8273   0.267E-02    0.158E-01
RMM:  24    -0.369610947526E+03   -0.49694E-02   -0.25326E-04  8237   0.271E-02    0.752E-02
RMM:  25    -0.369612332295E+03   -0.13848E-02   -0.62691E-05  7169   0.165E-02    0.657E-02
RMM:  26    -0.369615314010E+03   -0.29817E-02   -0.13230E-04  7583   0.175E-02    0.793E-02
RMM:  27    -0.369616524216E+03   -0.12102E-02   -0.55857E-05  6625   0.143E-02    0.452E-02
RMM:  28    -0.369617319504E+03   -0.79529E-03   -0.37165E-05  6027   0.112E-02    0.609E-02
RMM:  29    -0.369617871430E+03   -0.55193E-03   -0.46879E-05  6139   0.107E-02    0.323E-02
RMM:  30    -0.369617904801E+03   -0.33371E-04   -0.72008E-06  4889   0.554E-03    0.270E-02
RMM:  31    -0.369617946458E+03   -0.41657E-04   -0.56987E-06  4759   0.469E-03    0.222E-02
RMM:  32    -0.369617964092E+03   -0.17634E-04   -0.25618E-06  4582   0.405E-03    0.636E-03
RMM:  33    -0.369617991669E+03   -0.27577E-04   -0.95875E-07  4460   0.214E-03    0.921E-03
RMM:  34    -0.369618022396E+03   -0.30728E-04   -0.65464E-07  4375   0.203E-03    0.479E-03
RMM:  35    -0.369618040354E+03   -0.17957E-04   -0.17389E-07  2749   0.114E-03    0.400E-03
RMM:  36    -0.369618078463E+03   -0.38109E-04   -0.21637E-07  2058   0.103E-03    0.356E-03
RMM:  37    -0.369618098248E+03   -0.19785E-04   -0.62588E-08  1414   0.929E-04    0.225E-03
RMM:  38    -0.369618150527E+03   -0.52279E-04   -0.81023E-07  3327   0.125E-03    0.343E-03
RMM:  39    -0.369618182791E+03   -0.32264E-04   -0.28055E-07  2214   0.107E-03    0.235E-03
RMM:  40    -0.369618205253E+03   -0.22462E-04   -0.14438E-07  1600   0.100E-03    0.231E-03
RMM:  41    -0.369618227889E+03   -0.22636E-04   -0.19648E-07  1452   0.962E-04    0.100E-03
RMM:  42    -0.369618248587E+03   -0.20699E-04   -0.26919E-07  1750   0.999E-04    0.209E-03
RMM:  43    -0.369618269968E+03   -0.21380E-04   -0.29867E-07  1638   0.964E-04    0.270E-03
RMM:  44    -0.369618277306E+03   -0.73382E-05   -0.11656E-07  1131   0.875E-04
   2 F= -.36961828E+03 E0= -.36960844E+03  d E =-.702677E+00  mag=    70.6562
       N       E                     dE             d eps       ncg     rms          rms(c)
DAV:   1    -0.368841084332E+03    0.77719E+00   -0.14503E+02  8280   0.180E+01    0.937E+00
RMM:   2    -0.373556993335E+03   -0.47159E+01   -0.82748E+00  8318   0.821E+00    0.324E+01
RMM:   3    -0.372964678705E+03    0.59231E+00   -0.39181E+00  8333   0.516E+00    0.272E+01
RMM:   4    -0.372285265244E+03    0.67941E+00   -0.14939E+00  8344   0.289E+00    0.255E+01
RMM:   5    -0.370348234573E+03    0.19370E+01   -0.10636E+00  8325   0.265E+00    0.127E+01
RMM:   6    -0.369839810230E+03    0.50842E+00   -0.45305E-01  8337   0.177E+00    0.391E+00
RMM:   7    -0.369829923275E+03    0.98870E-02   -0.10889E-01  8344   0.822E-01    0.325E+00
RMM:   8    -0.369817356640E+03    0.12567E-01   -0.37625E-02  8342   0.511E-01    0.255E+00
RMM:   9    -0.369804921286E+03    0.12435E-01   -0.22877E-02  8334   0.392E-01    0.181E+00
RMM:  10    -0.369810473185E+03   -0.55519E-02   -0.25715E-02  8339   0.391E-01    0.243E+00
RMM:  11    -0.369790184429E+03    0.20289E-01   -0.20240E-02  8327   0.365E-01    0.977E-01
RMM:  12    -0.369790664627E+03   -0.48020E-03   -0.90031E-03  8330   0.235E-01    0.112E+00
RMM:  13    -0.369788062351E+03    0.26023E-02   -0.63535E-03  8331   0.202E-01    0.104E+00
RMM:  14    -0.369784295863E+03    0.37665E-02   -0.34119E-03  8335   0.152E-01    0.368E-01
RMM:  15    -0.369784599442E+03   -0.30358E-03   -0.12306E-03  8320   0.875E-02    0.437E-01
RMM:  16    -0.369784548883E+03    0.50559E-04   -0.67357E-04  8291   0.680E-02    0.284E-01
RMM:  17    -0.369784635080E+03   -0.86197E-04   -0.31787E-04  8285   0.467E-02    0.123E-01
RMM:  18    -0.369786106138E+03   -0.14711E-02   -0.24470E-04  8280   0.380E-02    0.219E-01
RMM:  19    -0.369786996639E+03   -0.89050E-03   -0.14618E-04  8218   0.313E-02    0.124E-01
RMM:  20    -0.369787775190E+03   -0.77855E-03   -0.59785E-05  7531   0.189E-02    0.117E-01
RMM:  21    -0.369790331035E+03   -0.25558E-02   -0.85802E-05  7589   0.189E-02    0.927E-02
RMM:  22    -0.369791660097E+03   -0.13291E-02   -0.54937E-05  7199   0.174E-02    0.679E-02
RMM:  23    -0.369794450259E+03   -0.27902E-02   -0.10373E-04  7614   0.179E-02    0.952E-02
RMM:  24    -0.369796163090E+03   -0.17128E-02   -0.63024E-05  7029   0.158E-02    0.464E-02
RMM:  25    -0.369797434298E+03   -0.12712E-02   -0.40056E-05  6235   0.124E-02    0.616E-02
RMM:  26    -0.369799972174E+03   -0.25379E-02   -0.10919E-04  7247   0.147E-02    0.503E-02
RMM:  27    -0.369800769656E+03   -0.79748E-03   -0.30470E-05  5782   0.103E-02    0.371E-02
RMM:  28    -0.369801800083E+03   -0.10304E-02   -0.49583E-05  6275   0.101E-02    0.518E-02
RMM:  29    -0.369802138819E+03   -0.33874E-03   -0.19549E-05  5343   0.805E-03    0.163E-02
RMM:  30    -0.369802231513E+03   -0.92693E-04   -0.59086E-06  4852   0.466E-03    0.201E-02
RMM:  31    -0.369802316642E+03   -0.85129E-04   -0.67521E-06  5008   0.438E-03    0.100E-02
RMM:  32    -0.369802327992E+03   -0.11350E-04   -0.14701E-06  4560   0.271E-03    0.622E-03
RMM:  33    -0.369802343517E+03   -0.15525E-04   -0.90034E-07  4242   0.183E-03    0.678E-03
RMM:  34    -0.369802349492E+03   -0.59747E-05   -0.32363E-07  3820   0.149E-03
   3 F= -.36980235E+03 E0= -.36979566E+03  d E =-.886749E+00  mag=    71.0113
       N       E                     dE             d eps       ncg     rms          rms(c)
DAV:   1    -0.369770471445E+03    0.31872E-01   -0.52274E+01  8352   0.110E+01    0.364E+00
RMM:   2    -0.370447227377E+03   -0.67676E+00   -0.10557E+00  8339   0.301E+00    0.126E+01
RMM:   3    -0.370899579266E+03   -0.45235E+00   -0.53825E-01  8340   0.183E+00    0.168E+01
RMM:   4    -0.370299856740E+03    0.59972E+00   -0.33666E-01  8333   0.142E+00    0.934E+00
RMM:   5    -0.369998674247E+03    0.30118E+00   -0.20175E-01  8341   0.116E+00    0.365E+00
RMM:   6    -0.369953027539E+03    0.45647E-01   -0.57037E-02  8343   0.634E-01    0.127E+00
RMM:   7    -0.369953803381E+03   -0.77584E-03   -0.13424E-02  8339   0.289E-01    0.137E+00
RMM:   8    -0.369949112179E+03    0.46912E-02   -0.73523E-03  8334   0.223E-01    0.107E+00
RMM:   9    -0.369947772104E+03    0.13401E-02   -0.57330E-03  8331   0.192E-01    0.936E-01
RMM:  10    -0.369948254013E+03   -0.48191E-03   -0.60622E-03  8338   0.192E-01    0.111E+00
RMM:  11    -0.369943542382E+03    0.47116E-02   -0.40470E-03  8331   0.165E-01    0.433E-01
RMM:  12    -0.369943416243E+03    0.12614E-03   -0.14975E-03  8314   0.966E-02    0.344E-01
RMM:  13    -0.369943620080E+03   -0.20384E-03   -0.70813E-04  8305   0.676E-02    0.323E-01
RMM:  14    -0.369943366291E+03    0.25379E-03   -0.32306E-04  8280   0.479E-02    0.754E-02
RMM:  15    -0.369943611598E+03   -0.24531E-03   -0.92237E-05  8173   0.237E-02    0.105E-01
RMM:  16    -0.369944015434E+03   -0.40384E-03   -0.44311E-05  6882   0.174E-02    0.752E-02
RMM:  17    -0.369944203271E+03   -0.18784E-03   -0.24124E-05  5131   0.133E-02    0.489E-02
RMM:  18    -0.369944807307E+03   -0.60404E-03   -0.27866E-05  5491   0.124E-02    0.697E-02
RMM:  19    -0.369945276999E+03   -0.46969E-03   -0.19614E-05  4874   0.120E-02    0.346E-02
RMM:  20    -0.369945603949E+03   -0.32695E-03   -0.10045E-05  4728   0.753E-03    0.400E-02
RMM:  21    -0.369946311137E+03   -0.70719E-03   -0.14619E-05  4979   0.762E-03    0.364E-02
RMM:  22    -0.369946651942E+03   -0.34081E-03   -0.75015E-06  4740   0.651E-03    0.205E-02
RMM:  23    -0.369947206219E+03   -0.55428E-03   -0.10086E-05  4898   0.572E-03    0.291E-02
RMM:  24    -0.369947957794E+03   -0.75158E-03   -0.16808E-05  5181   0.663E-03    0.194E-02
RMM:  25    -0.369948396100E+03   -0.43831E-03   -0.93895E-06  4902   0.545E-03    0.227E-02
RMM:  26    -0.369949189796E+03   -0.79370E-03   -0.28995E-05  5662   0.644E-03    0.239E-02
RMM:  27    -0.369949419167E+03   -0.22937E-03   -0.83602E-06  4926   0.480E-03    0.114E-02
RMM:  28    -0.369949561945E+03   -0.14278E-03   -0.59551E-06  4848   0.338E-03    0.135E-02
RMM:  29    -0.369949616043E+03   -0.54098E-04   -0.31235E-06  4691   0.307E-03    0.464E-03
RMM:  30    -0.369949625158E+03   -0.91151E-05   -0.82884E-07  3863   0.164E-03
   4 F= -.36994963E+03 E0= -.36994262E+03  d E =-.147276E+00  mag=    71.1155
       N       E                     dE             d eps       ncg     rms          rms(c)
DAV:   1    -0.369660988562E+03    0.28863E+00   -0.10226E+02  8298   0.154E+01    0.514E+00
RMM:   2    -0.370963852881E+03   -0.13029E+01   -0.22135E+00  8340   0.435E+00    0.175E+01
RMM:   3    -0.371848512267E+03   -0.88466E+00   -0.11223E+00  8341   0.265E+00    0.228E+01
RMM:   4    -0.370751730054E+03    0.10968E+01   -0.63930E-01  8332   0.195E+00    0.132E+01
RMM:   5    -0.370108949750E+03    0.64278E+00   -0.39378E-01  8340   0.162E+00    0.486E+00
RMM:   6    -0.370033901213E+03    0.75049E-01   -0.11330E-01  8343   0.889E-01    0.212E+00
RMM:   7    -0.370033146934E+03    0.75428E-03   -0.27990E-02  8339   0.420E-01    0.204E+00
RMM:   8    -0.370021996878E+03    0.11150E-01   -0.14694E-02  8337   0.318E-01    0.137E+00
RMM:   9    -0.370021808073E+03    0.18881E-03   -0.11042E-02  8333   0.265E-01    0.141E+00
RMM:  10    -0.370021075691E+03    0.73238E-03   -0.11449E-02  8340   0.263E-01    0.151E+00
RMM:  11    -0.370012875828E+03    0.81999E-02   -0.74641E-03  8335   0.223E-01    0.576E-01
RMM:  12    -0.370013215697E+03   -0.33987E-03   -0.35400E-03  8325   0.148E-01    0.618E-01
RMM:  13    -0.370012709976E+03    0.50572E-03   -0.17582E-03  8330   0.108E-01    0.452E-01
RMM:  14    -0.370012108564E+03    0.60141E-03   -0.69148E-04  8294   0.693E-02    0.126E-01
RMM:  15    -0.370012564026E+03   -0.45546E-03   -0.24865E-04  8290   0.389E-02    0.199E-01
RMM:  16    -0.370012951509E+03   -0.38748E-03   -0.13305E-04  8207   0.304E-02    0.110E-01
RMM:  17    -0.370013199596E+03   -0.24809E-03   -0.57003E-05  7527   0.194E-02    0.693E-02
RMM:  18    -0.370014148783E+03   -0.94919E-03   -0.52988E-05  7173   0.171E-02    0.101E-01
RMM:  19    -0.370014774184E+03   -0.62540E-03   -0.36616E-05  6283   0.160E-02    0.512E-02
RMM:  20    -0.370015290175E+03   -0.51599E-03   -0.19971E-05  4937   0.108E-02    0.579E-02
RMM:  21    -0.370016552508E+03   -0.12623E-02   -0.32242E-05  5768   0.113E-02    0.536E-02
RMM:  22    -0.370017122246E+03   -0.56974E-03   -0.14934E-05  4891   0.935E-03    0.284E-02
RMM:  23    -0.370017995625E+03   -0.87338E-03   -0.18483E-05  5195   0.804E-03    0.418E-02
RMM:  24    -0.370019213520E+03   -0.12179E-02   -0.29900E-05  5713   0.916E-03    0.312E-02
RMM:  25    -0.370019895231E+03   -0.68171E-03   -0.15751E-05  5071   0.728E-03    0.322E-02
RMM:  26    -0.370021187992E+03   -0.12928E-02   -0.44816E-05  6112   0.858E-03    0.329E-02
RMM:  27    -0.370021690997E+03   -0.50301E-03   -0.17232E-05  5196   0.682E-03    0.153E-02
RMM:  28    -0.370022029586E+03   -0.33859E-03   -0.13691E-05  5144   0.510E-03    0.217E-02
RMM:  29    -0.370022157009E+03   -0.12742E-03   -0.69479E-06  4878   0.466E-03    0.103E-02
RMM:  30    -0.370022182455E+03   -0.25446E-04   -0.17968E-06  4544   0.246E-03    0.882E-03
RMM:  31    -0.370022198918E+03   -0.16463E-04   -0.22070E-06  4570   0.220E-03    0.929E-03
RMM:  32    -0.370022198811E+03    0.10692E-06   -0.50922E-07  3871   0.157E-03
   5 F= -.37002220E+03 E0= -.37001495E+03  d E =-.219849E+00  mag=    71.2486
       N       E                     dE             d eps       ncg     rms          rms(c)
DAV:   1    -0.369966734153E+03    0.55465E-01   -0.32548E+01  8370   0.864E+00    0.289E+00
RMM:   2    -0.370561141740E+03   -0.59441E+00   -0.57388E-01  8343   0.214E+00    0.122E+01
RMM:   3    -0.370581073995E+03   -0.19932E-01   -0.27747E-01  8344   0.129E+00    0.126E+01
RMM:   4    -0.370292358785E+03    0.28872E+00   -0.26568E-01  8336   0.128E+00    0.761E+00
RMM:   5    -0.370105839223E+03    0.18652E+00   -0.13904E-01  8338   0.991E-01    0.263E+00
RMM:   6    -0.370081812743E+03    0.24026E-01   -0.28583E-02  8344   0.446E-01    0.880E-01
RMM:   7    -0.370083233186E+03   -0.14204E-02   -0.74304E-03  8315   0.218E-01    0.116E+00
RMM:   8    -0.370079553977E+03    0.36792E-02   -0.46404E-03  8335   0.178E-01    0.816E-01
RMM:   9    -0.370078036186E+03    0.15178E-02   -0.33627E-03  8328   0.148E-01    0.598E-01
RMM:  10    -0.370078841179E+03   -0.80499E-03   -0.36675E-03  8342   0.147E-01    0.890E-01
RMM:  11    -0.370076007755E+03    0.28334E-02   -0.25357E-03  8334   0.130E-01    0.307E-01
RMM:  12    -0.370076064301E+03   -0.56545E-04   -0.89795E-04  8314   0.738E-02    0.270E-01
RMM:  13    -0.370076243774E+03   -0.17947E-03   -0.37398E-04  8279   0.492E-02    0.203E-01
RMM:  14    -0.370076227790E+03    0.15984E-04   -0.14459E-04  8229   0.315E-02    0.555E-02
RMM:  15    -0.370076441406E+03   -0.21362E-03   -0.43838E-05  6929   0.165E-02    0.943E-02
RMM:  16    -0.370076799281E+03   -0.35788E-03   -0.28237E-05  5586   0.143E-02    0.617E-02
RMM:  17    -0.370077009372E+03   -0.21009E-03   -0.16856E-05  4826   0.113E-02    0.382E-02
RMM:  18    -0.370077488866E+03   -0.47949E-03   -0.15967E-05  4858   0.965E-03    0.518E-02
RMM:  19    -0.370077878231E+03   -0.38937E-03   -0.11465E-05  4705   0.931E-03    0.244E-02
RMM:  20    -0.370078119921E+03   -0.24169E-03   -0.51546E-06  4599   0.548E-03    0.247E-02
RMM:  21    -0.370078728972E+03   -0.60905E-03   -0.77372E-06  4771   0.536E-03    0.243E-02
RMM:  22    -0.370079002183E+03   -0.27321E-03   -0.39762E-06  4628   0.479E-03    0.164E-02
RMM:  23    -0.370079642102E+03   -0.63992E-03   -0.80461E-06  4813   0.440E-03    0.211E-02
RMM:  24    -0.370080028201E+03   -0.38610E-03   -0.49198E-06  4707   0.451E-03    0.126E-02
RMM:  25    -0.370080597841E+03   -0.56964E-03   -0.89372E-06  4840   0.436E-03    0.227E-02
RMM:  26    -0.370081124001E+03   -0.52616E-03   -0.11953E-05  4960   0.473E-03    0.102E-02
RMM:  27    -0.370081252744E+03   -0.12874E-03   -0.28362E-06  4650   0.286E-03    0.100E-02
RMM:  28    -0.370081403097E+03   -0.15035E-03   -0.47838E-06  4719   0.268E-03    0.782E-03
RMM:  29    -0.370081426632E+03   -0.23535E-04   -0.12954E-06  4332   0.198E-03    0.324E-03
RMM:  30    -0.370081432952E+03   -0.63199E-05   -0.96049E-07  3361   0.134E-03
   6 F= -.37008143E+03 E0= -.37007455E+03  d E =-.592341E-01  mag=    71.2714
       N       E                     dE             d eps       ncg     rms          rms(c)
DAV:   1    -0.369951281769E+03    0.13014E+00   -0.42650E+01  8316   0.990E+00    0.331E+00
RMM:   2    -0.370733133776E+03   -0.78185E+00   -0.75376E-01  8343   0.245E+00    0.141E+01
RMM:   3    -0.370754158502E+03   -0.21025E-01   -0.36452E-01  8344   0.148E+00    0.144E+01
RMM:   4    -0.370382841826E+03    0.37132E+00   -0.34898E-01  8336   0.146E+00    0.874E+00
RMM:   5    -0.370134284327E+03    0.24856E+00   -0.18421E-01  8339   0.114E+00    0.301E+00
RMM:   6    -0.370103215955E+03    0.31068E-01   -0.38287E-02  8344   0.515E-01    0.106E+00
RMM:   7    -0.370105086394E+03   -0.18704E-02   -0.10142E-02  8319   0.255E-01    0.135E+00
RMM:   8    -0.370100107920E+03    0.49785E-02   -0.60470E-03  8333   0.204E-01    0.908E-01
RMM:   9    -0.370098364958E+03    0.17430E-02   -0.42982E-03  8329   0.168E-01    0.685E-01
RMM:  10    -0.370099446902E+03   -0.10819E-02   -0.47272E-03  8344   0.167E-01    0.101E+00
RMM:  11    -0.370095834834E+03    0.36121E-02   -0.33080E-03  8337   0.148E-01    0.355E-01
RMM:  12    -0.370096017770E+03   -0.18294E-03   -0.12843E-03  8324   0.881E-02    0.343E-01
RMM:  13    -0.370096168219E+03   -0.15045E-03   -0.55295E-04  8285   0.600E-02    0.236E-01
RMM:  14    -0.370096125467E+03    0.42752E-04   -0.20181E-04  8263   0.370E-02    0.647E-02
RMM:  15    -0.370096406974E+03   -0.28151E-03   -0.66997E-05  7784   0.201E-02    0.120E-01
RMM:  16    -0.370096834515E+03   -0.42754E-03   -0.41660E-05  6703   0.168E-02    0.703E-02
RMM:  17    -0.370097081876E+03   -0.24736E-03   -0.23240E-05  5190   0.130E-02    0.439E-02
RMM:  18    -0.370097665387E+03   -0.58351E-03   -0.21483E-05  5080   0.114E-02    0.613E-02
RMM:  19    -0.370098118313E+03   -0.45293E-03   -0.15293E-05  4783   0.108E-02    0.281E-02
RMM:  20    -0.370098402639E+03   -0.28433E-03   -0.67948E-06  4636   0.635E-03    0.287E-02
RMM:  21    -0.370099156137E+03   -0.75350E-03   -0.10688E-05  4836   0.632E-03    0.279E-02
RMM:  22    -0.370099493308E+03   -0.33717E-03   -0.55775E-06  4669   0.565E-03    0.189E-02
RMM:  23    -0.370100262655E+03   -0.76935E-03   -0.10329E-05  4869   0.505E-03    0.248E-02
RMM:  24    -0.370100714850E+03   -0.45219E-03   -0.61520E-06  4739   0.516E-03    0.154E-02
RMM:  25    -0.370101416896E+03   -0.70205E-03   -0.11502E-05  4919   0.500E-03    0.256E-02
RMM:  26    -0.370102042433E+03   -0.62554E-03   -0.14161E-05  5042   0.537E-03    0.110E-02
RMM:  27    -0.370102208000E+03   -0.16557E-03   -0.35046E-06  4712   0.325E-03    0.116E-02
RMM:  28    -0.370102418587E+03   -0.21059E-03   -0.66252E-06  4825   0.315E-03    0.988E-03
RMM:  29    -0.370102452238E+03   -0.33651E-04   -0.17955E-06  4485   0.234E-03    0.413E-03
RMM:  30    -0.370102462266E+03   -0.10027E-04   -0.14170E-06  3827   0.156E-03    0.661E-03
RMM:  31    -0.370102457955E+03    0.43111E-05   -0.50784E-07  3576   0.134E-03
   7 F= -.37010246E+03 E0= -.37009598E+03  d E =-.802591E-01  mag=    71.2950
       N       E                     dE             d eps       ncg     rms          rms(c)
DAV:   1    -0.370066249548E+03    0.36213E-01   -0.18546E+01  8370   0.650E+00    0.198E+00
RMM:   2    -0.370303792537E+03   -0.23754E+00   -0.29198E-01  8344   0.153E+00    0.758E+00
RMM:   3    -0.370394088249E+03   -0.90296E-01   -0.13697E-01  8344   0.908E-01    0.927E+00
RMM:   4    -0.370222023001E+03    0.17207E+00   -0.12159E-01  8337   0.860E-01    0.527E+00
RMM:   5    -0.370137464947E+03    0.84558E-01   -0.66851E-02  8342   0.683E-01    0.206E+00
RMM:   6    -0.370122190536E+03    0.15274E-01   -0.15590E-02  8343   0.331E-01    0.561E-01
RMM:   7    -0.370123107609E+03   -0.91707E-03   -0.37253E-03  8319   0.152E-01    0.843E-01
RMM:   8    -0.370121232235E+03    0.18754E-02   -0.24949E-03  8340   0.129E-01    0.620E-01
RMM:   9    -0.370120123802E+03    0.11084E-02   -0.19195E-03  8316   0.112E-01    0.420E-01
RMM:  10    -0.370120678471E+03   -0.55467E-03   -0.20117E-03  8331   0.110E-01    0.661E-01
RMM:  11    -0.370119178581E+03    0.14999E-02   -0.13619E-03  8313   0.954E-02    0.239E-01
RMM:  12    -0.370119111051E+03    0.67529E-04   -0.40842E-04  8303   0.503E-02    0.139E-01
RMM:  13    -0.370119311200E+03   -0.20015E-03   -0.14608E-04  8247   0.306E-02    0.138E-01
RMM:  14    -0.370119354878E+03   -0.43677E-04   -0.64059E-05  7532   0.213E-02    0.445E-02
RMM:  15    -0.370119453440E+03   -0.98563E-04   -0.15735E-05  4829   0.103E-02    0.507E-02
RMM:  16    -0.370119702681E+03   -0.24924E-03   -0.11780E-05  4688   0.943E-03    0.434E-02
RMM:  17    -0.370119842638E+03   -0.13996E-03   -0.75711E-06  4559   0.773E-03    0.258E-02
RMM:  18    -0.370120120463E+03   -0.27782E-03   -0.75081E-06  4638   0.657E-03    0.359E-02
RMM:  19    -0.370120394657E+03   -0.27419E-03   -0.58643E-06  4627   0.636E-03    0.173E-02
RMM:  20    -0.370120520622E+03   -0.12597E-03   -0.22048E-06  4530   0.363E-03    0.152E-02
RMM:  21    -0.370120854005E+03   -0.33338E-03   -0.32737E-06  4637   0.349E-03    0.168E-02
RMM:  22    -0.370121021779E+03   -0.16777E-03   -0.17877E-06  4535   0.318E-03    0.107E-02
RMM:  23    -0.370121346861E+03   -0.32508E-03   -0.30926E-06  4641   0.290E-03    0.155E-02
RMM:  24    -0.370121655656E+03   -0.30879E-03   -0.33203E-06  4644   0.317E-03    0.801E-03
RMM:  25    -0.370121889436E+03   -0.23378E-03   -0.26364E-06  4606   0.262E-03    0.125E-02
RMM:  26    -0.370122242037E+03   -0.35260E-03   -0.72136E-06  4804   0.311E-03    0.933E-03
RMM:  27    -0.370122328179E+03   -0.86142E-04   -0.19445E-06  4511   0.220E-03    0.528E-03
RMM:  28    -0.370122397353E+03   -0.69174E-04   -0.18386E-06  4114   0.174E-03    0.616E-03
RMM:  29    -0.370122413780E+03   -0.16426E-04   -0.72119E-07  3633   0.143E-03    0.195E-03
RMM:  30    -0.370122416724E+03   -0.29441E-05   -0.22646E-07  2081   0.986E-04
   8 F= -.37012242E+03 E0= -.37011539E+03  d E =-.199588E-01  mag=    71.3105
       N       E                     dE             d eps       ncg     rms          rms(c)
DAV:   1    -0.370113779635E+03    0.86341E-02   -0.35173E+00  8442   0.283E+00    0.862E-01
RMM:   2    -0.370163471861E+03   -0.49692E-01   -0.56046E-02  8344   0.665E-01    0.348E+00
RMM:   3    -0.370173008939E+03   -0.95371E-02   -0.25252E-02  8344   0.391E-01    0.397E+00
RMM:   4    -0.370141878126E+03    0.31131E-01   -0.23819E-02  8341   0.382E-01    0.225E+00
RMM:   5    -0.370127266001E+03    0.14612E-01   -0.12413E-02  8344   0.295E-01    0.936E-01
RMM:   6    -0.370124127459E+03    0.31385E-02   -0.29539E-03  8344   0.144E-01    0.236E-01
RMM:   7    -0.370124204335E+03   -0.76876E-04   -0.62641E-04  8285   0.620E-02    0.341E-01
RMM:   8    -0.370123786460E+03    0.41788E-03   -0.47860E-04  8309   0.556E-02    0.281E-01
RMM:   9    -0.370123453759E+03    0.33270E-03   -0.37904E-04  8281   0.501E-02    0.151E-01
RMM:  10    -0.370123520336E+03   -0.66577E-04   -0.35694E-04  8309   0.464E-02    0.271E-01
RMM:  11    -0.370123238353E+03    0.28198E-03   -0.22940E-04  8263   0.392E-02    0.111E-01
RMM:  12    -0.370123211917E+03    0.26436E-04   -0.59680E-05  7616   0.196E-02    0.415E-02
RMM:  13    -0.370123268033E+03   -0.56116E-04   -0.16919E-05  4818   0.108E-02    0.512E-02
RMM:  14    -0.370123308125E+03   -0.40092E-04   -0.94897E-06  4533   0.947E-03    0.201E-02
RMM:  15    -0.370123337707E+03   -0.29582E-04   -0.22171E-06  4448   0.398E-03    0.162E-02
RMM:  16    -0.370123434237E+03   -0.96530E-04   -0.23159E-06  4523   0.375E-03    0.206E-02
RMM:  17    -0.370123504377E+03   -0.70140E-04   -0.17955E-06  4505   0.361E-03    0.105E-02
RMM:  18    -0.370123578418E+03   -0.74041E-04   -0.12199E-06  4506   0.260E-03    0.134E-02
RMM:  19    -0.370123679076E+03   -0.10066E-03   -0.10956E-06  4482   0.240E-03    0.866E-03
RMM:  20    -0.370123718785E+03   -0.39709E-04   -0.39399E-07  4161   0.156E-03    0.648E-03
RMM:  21    -0.370123815175E+03   -0.96390E-04   -0.58680E-07  3852   0.142E-03    0.738E-03
RMM:  22    -0.370123881682E+03   -0.66507E-04   -0.41381E-07  3643   0.140E-03    0.391E-03
RMM:  23    -0.370123981097E+03   -0.99415E-04   -0.71643E-07  3925   0.141E-03    0.659E-03
RMM:  24    -0.370124106099E+03   -0.12500E-03   -0.12390E-06  3696   0.153E-03    0.388E-03
RMM:  25    -0.370124159308E+03   -0.53209E-04   -0.51674E-07  3274   0.125E-03    0.412E-03
RMM:  26    -0.370124252236E+03   -0.92929E-04   -0.17042E-06  3761   0.142E-03    0.412E-03
RMM:  27    -0.370124276146E+03   -0.23909E-04   -0.42078E-07  2633   0.110E-03    0.189E-03
RMM:  28    -0.370124288977E+03   -0.12832E-04   -0.33014E-07  2424   0.105E-03    0.247E-03
RMM:  29    -0.370124292685E+03   -0.37074E-05   -0.16965E-07  1645   0.925E-04
   9 F= -.37012429E+03 E0= -.37011701E+03  d E =-.218347E-01  mag=    71.3164
       N       E                     dE             d eps       ncg     rms          rms(c)
DAV:   1    -0.370118422863E+03    0.58661E-02   -0.36395E+00  8415   0.289E+00    0.876E-01
RMM:   2    -0.370164757295E+03   -0.46334E-01   -0.61681E-02  8340   0.724E-01    0.314E+00
RMM:   3    -0.370195301321E+03   -0.30544E-01   -0.27915E-02  8341   0.412E-01    0.459E+00
RMM:   4    -0.370141142626E+03    0.54159E-01   -0.23593E-02  8333   0.383E-01    0.186E+00
RMM:   5    -0.370133178390E+03    0.79642E-02   -0.11455E-02  8344   0.282E-01    0.110E+00
RMM:   6    -0.370128987169E+03    0.41912E-02   -0.33777E-03  8343   0.156E-01    0.252E-01
RMM:   7    -0.370129013302E+03   -0.26133E-04   -0.63932E-04  8310   0.624E-02    0.283E-01
RMM:   8    -0.370128908213E+03    0.10509E-03   -0.44085E-04  8297   0.530E-02    0.308E-01
RMM:   9    -0.370128617507E+03    0.29071E-03   -0.36127E-04  8285   0.489E-02    0.152E-01
RMM:  10    -0.370128726041E+03   -0.10853E-03   -0.37128E-04  8317   0.474E-02    0.255E-01
RMM:  11    -0.370128492528E+03    0.23351E-03   -0.25278E-04  8280   0.414E-02    0.123E-01
RMM:  12    -0.370128446195E+03    0.46333E-04   -0.59188E-05  7597   0.197E-02    0.473E-02
RMM:  13    -0.370128460333E+03   -0.14137E-04   -0.22043E-05  5079   0.123E-02    0.557E-02
RMM:  14    -0.370128460768E+03   -0.43456E-06   -0.11354E-05  4490   0.105E-02
  10 F= -.37012846E+03 E0= -.37012117E+03  d E =-.416808E-02  mag=    71.3200
