 vasp.5.4.4.18Apr17-6-g9f103f2a35 (build Sep 06 2021 19:49:22) complex          
  
 executed on             LinuxIFC date 2022.01.05  00:40:56
 running on   72 total cores
 distrk:  each k-point on   72 cores,    1 groups
 distr:  one band on NCORES_PER_BAND=  24 cores,    3 groups


--------------------------------------------------------------------------------------------------------


 INCAR:
 POTCAR:    PAW_PBE Ni 02Aug2007                  
 POTCAR:    PAW_PBE Fe 06Sep2000                  

 ----------------------------------------------------------------------------- 
|                                                                             |
|           W    W    AA    RRRRR   N    N  II  N    N   GGGG   !!!           |
|           W    W   A  A   R    R  NN   N  II  NN   N  G    G  !!!           |
|           W    W  A    A  R    R  N N  N  II  N N  N  G       !!!           |
|           W WW W  AAAAAA  RRRRR   N  N N  II  N  N N  G  GGG   !            |
|           WW  WW  A    A  R   R   N   NN  II  N   NN  G    G                |
|           W    W  A    A  R    R  N    N  II  N    N   GGGG   !!!           |
|                                                                             |
|      For optimal performance we recommend to set                            |
|        NCORE= 4 - approx SQRT( number of cores)                             |
|      NCORE specifies how many cores store one orbital (NPAR=cpu/NCORE).     |
|      This setting can  greatly improve the performance of VASP for DFT.     |
|      The default,   NCORE=1            might be grossly inefficient         |
|      on modern multi-core architectures or massively parallel machines.     |
|      Do your own testing !!!!                                               |
|      Unfortunately you need to use the default for GW and RPA calculations. |
|      (for HF NCORE is supported but not extensively tested yet)             |
|                                                                             |
 ----------------------------------------------------------------------------- 

 POTCAR:    PAW_PBE Ni 02Aug2007                  
   VRHFIN =Ni:                                                                  
   LEXCH  = PE                                                                  
   EATOM  =  1077.6739 eV,   79.2068 Ry                                         
                                                                                
   TITEL  = PAW_PBE Ni 02Aug2007                                                
   LULTRA =        F    use ultrasoft PP ?                                      
   IUNSCR =        1    unscreen: 0-lin 1-nonlin 2-no                           
   RPACOR =    2.000    partial core radius                                     
   POMASS =   58.690; ZVAL   =   10.000    mass and valenz                      
   RCORE  =    2.300    outmost cutoff radius                                   
   RWIGS  =    2.430; RWIGS  =    1.286    wigner-seitz radius (au A)           
   ENMAX  =  269.532; ENMIN  =  202.149 eV                                      
   RCLOC  =    1.201    cutoff for local pot                                    
   LCOR   =        T    correct aug charges                                     
   LPAW   =        T    paw PP                                                  
   EAUG   =  544.565                                                            
   DEXC   =    0.000                                                            
   RMAX   =    2.357    core radius for proj-oper                               
   RAUG   =    1.300    factor for augmentation sphere                          
   RDEP   =    2.390    radius for radial grids                                 
   RDEPT  =    1.838    core radius for aug-charge                              
                                                                                
   Atomic configuration                                                         
    9 entries                                                                   
     n  l   j            E        occ.                                          
     1  0  0.50     -8206.4253   2.0000                                         
     2  0  0.50      -976.1748   2.0000                                         
     2  1  1.50      -839.0571   6.0000                                         
     3  0  0.50      -105.9991   2.0000                                         
     3  1  1.50       -66.4603   6.0000                                         
     3  2  2.50        -4.6458   9.0000                                         
     4  0  0.50        -4.4926   1.0000                                         
     4  1  1.50        -4.0817   0.0000                                         
     4  3  2.50        -1.3606   0.0000                                         
   Description                                                                  
     l       E           TYP  RCUT    TYP  RCUT                                 
     2     -4.6457903     23  2.300                                             
     2     -6.0063729     23  2.300                                             
     0     -4.4925590     23  2.300                                             
     0      5.0102601     23  2.300                                             
     1     -2.7211652     23  2.300                                             
     1     16.5183231     23  2.300                                             
  local pseudopotential read in
  partial core-charges read in
  partial kinetic energy density read in
  atomic valenz-charges read in
  non local Contribution for L=           2  read in
    real space projection operators read in
  non local Contribution for L=           2  read in
    real space projection operators read in
  non local Contribution for L=           0  read in
    real space projection operators read in
  non local Contribution for L=           0  read in
    real space projection operators read in
  non local Contribution for L=           1  read in
    real space projection operators read in
  non local Contribution for L=           1  read in
    real space projection operators read in
    PAW grid and wavefunctions read in
 
   number of l-projection  operators is LMAX  =           6
   number of lm-projection operators is LMMAX =          18
 
 POTCAR:    PAW_PBE Fe 06Sep2000                  
   VRHFIN =Fe:  d7 s1                                                           
   LEXCH  = PE                                                                  
   EATOM  =   594.3153 eV,   43.6809 Ry                                         
                                                                                
   TITEL  = PAW_PBE Fe 06Sep2000                                                
   LULTRA =        F    use ultrasoft PP ?                                      
   IUNSCR =        1    unscreen: 0-lin 1-nonlin 2-no                           
   RPACOR =    2.000    partial core radius                                     
   POMASS =   55.847; ZVAL   =    8.000    mass and valenz                      
   RCORE  =    2.300    outmost cutoff radius                                   
   RWIGS  =    2.460; RWIGS  =    1.302    wigner-seitz radius (au A)           
   ENMAX  =  267.882; ENMIN  =  200.911 eV                                      
   RCLOC  =    1.701    cutoff for local pot                                    
   LCOR   =        T    correct aug charges                                     
   LPAW   =        T    paw PP                                                  
   EAUG   =  511.368                                                            
   DEXC   =    0.000                                                            
   RMAX   =    2.356    core radius for proj-oper                               
   RAUG   =    1.300    factor for augmentation sphere                          
   RDEP   =    2.442    radius for radial grids                                 
   RDEPT  =    1.890    core radius for aug-charge                              
                                                                                
   Atomic configuration                                                         
    9 entries                                                                   
     n  l   j            E        occ.                                          
     1  0  0.50     -6993.8440   2.0000                                         
     2  0  0.50      -814.6047   2.0000                                         
     2  1  1.50      -693.3689   6.0000                                         
     3  0  0.50       -89.4732   2.0000                                         
     3  1  1.50       -55.6373   6.0000                                         
     3  2  2.50        -3.8151   7.0000                                         
     4  0  0.50        -4.2551   1.0000                                         
     4  1  1.50        -3.4015   0.0000                                         
     4  3  2.50        -1.3606   0.0000                                         
   Description                                                                  
     l       E           TYP  RCUT    TYP  RCUT                                 
     2     -3.8151135     23  2.300                                             
     2     -5.1756961     23  2.300                                             
     0     -4.2550963     23  2.300                                             
     0      7.2035603     23  2.300                                             
     1     -2.7211652     23  2.300                                             
     1     18.4316424     23  2.300                                             
  local pseudopotential read in
  partial core-charges read in
  partial kinetic energy density read in
  atomic valenz-charges read in
  non local Contribution for L=           2  read in
    real space projection operators read in
  non local Contribution for L=           2  read in
    real space projection operators read in
  non local Contribution for L=           0  read in
    real space projection operators read in
  non local Contribution for L=           0  read in
    real space projection operators read in
  non local Contribution for L=           1  read in
    real space projection operators read in
  non local Contribution for L=           1  read in
    real space projection operators read in
    PAW grid and wavefunctions read in
 
   number of l-projection  operators is LMAX  =           6
   number of lm-projection operators is LMMAX =          18
 
 Optimization of the real space projectors (new method)

 maximal supplied QI-value         = 16.25
 optimisation between [QCUT,QGAM] = [ 11.54, 23.24] = [ 37.28,151.24] Ry 
 Optimized for a Real-space Cutoff    1.45 Angstroem

   l    n(q)    QCUT    max X(q) W(low)/X(q) W(high)/X(q)  e(spline) 
   2      9    11.539    60.317    0.19E-03    0.47E-04    0.16E-06
   2      9    11.539    55.921    0.19E-03    0.48E-04    0.16E-06
   0     10    11.539    51.690    0.80E-04    0.50E-04    0.24E-06
   0     10    11.539    30.015    0.73E-04    0.45E-04    0.22E-06
   1     10    11.539    18.849    0.87E-04    0.16E-03    0.71E-07
   1     10    11.539    14.624    0.73E-04    0.13E-03    0.64E-07
 Optimization of the real space projectors (new method)

 maximal supplied QI-value         = 16.25
 optimisation between [QCUT,QGAM] = [ 11.54, 23.24] = [ 37.28,151.24] Ry 
 Optimized for a Real-space Cutoff    1.53 Angstroem

   l    n(q)    QCUT    max X(q) W(low)/X(q) W(high)/X(q)  e(spline) 
   2     10    11.539    80.901    0.11E-03    0.14E-03    0.21E-06
   2     10    11.539    75.754    0.11E-03    0.14E-03    0.22E-06
   0     11    11.539    58.752    0.52E-04    0.18E-04    0.33E-06
   0     11    11.539    30.679    0.44E-04    0.16E-04    0.30E-06
   1     10    11.539    17.977    0.53E-04    0.29E-04    0.13E-06
   1     10    11.539    13.559    0.44E-04    0.25E-04    0.11E-06
  PAW_PBE Ni 02Aug2007                  :
 energy of atom  1       EATOM=-1077.6739
 kinetic energy error for atom=    0.0030 (will be added to EATOM!!)
  PAW_PBE Fe 06Sep2000                  :
 energy of atom  2       EATOM= -594.3153
 kinetic energy error for atom=    0.0026 (will be added to EATOM!!)
 
 
 POSCAR: POSCAR                                  
  positions in direct lattice
  velocities in cartesian coordinates
 exchange correlation table for  LEXCH =        8
   RHO(1)=    0.500       N(1)  =     2000
   RHO(2)=  100.500       N(2)  =     4000
 


--------------------------------------------------------------------------------------------------------


 ion  position               nearest neighbor table
   1  0.001  0.001  0.096-  44 2.49   9 2.50  13 2.50  38 2.50   3 2.50  11 2.50  30 2.50   7 2.51
                            48 2.52
   2  0.003  0.003  0.378-  22 2.43  50 2.45  51 2.46   4 2.50  31 2.52  12 2.52   8 2.53  10 2.54
                            39 2.58
   3  0.250  0.000  0.095-  30 2.50   1 2.50  14 2.50  11 2.51   5 2.51  44 2.51  32 2.52  45 2.52
                            16 2.52
   4  0.252  0.002  0.379-  51 2.42  52 2.42  46 2.45   6 2.49   2 2.50  15 2.51  12 2.52  31 2.53
                            33 2.56
   5  0.499  0.999  0.096-  45 2.49  14 2.50   7 2.50  64 2.51  35 2.51   3 2.51  32 2.51  17 2.52
                            19 2.53
   6  0.499  0.001  0.377-  21 2.44  47 2.45  52 2.45   4 2.49  18 2.51   8 2.51  15 2.52  33 2.53
                            36 2.57
   7  0.749  0.999  0.096-  38 2.50   9 2.50   5 2.50  35 2.50  64 2.51  48 2.51  17 2.51   1 2.51
                            20 2.52
   8  0.749  1.000  0.378-  22 2.43  49 2.46  21 2.47  18 2.51   6 2.51   2 2.53  39 2.53  36 2.55
                            10 2.56
   9  0.999  0.249  0.096-  17 2.50   1 2.50   7 2.50  13 2.51  53 2.51  20 2.51  23 2.51  11 2.51
                            25 2.52
  10  0.003  0.256  0.379-  24 2.46  22 2.46  26 2.46  54 2.48  18 2.51  61 2.51  12 2.52   2 2.54
                             8 2.56
  11  0.250  0.250  0.095-   1 2.50  53 2.50   3 2.51  16 2.51   9 2.51  13 2.52  57 2.52  14 2.52
                            55 2.55
  12  0.254  0.254  0.378-  26 2.44  58 2.44  51 2.45  56 2.46  15 2.49  54 2.51   4 2.52   2 2.52
                            10 2.52
  13  0.083  0.166  0.192-  26 2.42  22 2.46  51 2.48  20 2.50   1 2.50  44 2.50  57 2.50  16 2.50
                             9 2.51  48 2.51  25 2.51  11 2.52
  14  0.501  0.249  0.096-   5 2.50  17 2.50   3 2.50  19 2.51  16 2.51  29 2.51  55 2.51  11 2.52
                            27 2.53
  15  0.502  0.254  0.380-  52 2.42  58 2.45  28 2.46  56 2.47  12 2.49  60 2.49   4 2.51  18 2.52
                             6 2.52
  16  0.333  0.167  0.192-  51 2.41  52 2.42  58 2.43  19 2.50  13 2.50  29 2.51  44 2.51  45 2.51
                            11 2.51  14 2.51  57 2.52   3 2.52
  17  0.751  0.250  0.097-  59 2.48   9 2.50  14 2.50  20 2.50   7 2.51  23 2.52  19 2.52   5 2.52
                            27 2.52
  18  0.751  0.251  0.377-  21 2.44  61 2.45  60 2.48  24 2.50  10 2.51   8 2.51  28 2.51   6 2.51
                            15 2.52
  19  0.582  0.167  0.193-  21 2.41  60 2.41  52 2.44  29 2.49  45 2.50  16 2.50  14 2.51  17 2.52
                            64 2.52  59 2.52  20 2.53   5 2.53
  20  0.834  0.167  0.193-  21 2.43  22 2.44  61 2.45  25 2.49  48 2.49  13 2.50  17 2.50   9 2.51
                            64 2.51   7 2.52  59 2.53  19 2.53
  21  0.666  0.085  0.284-  19 2.41  20 2.43  64 2.43  18 2.44   6 2.44   8 2.47  47 2.52  22 2.52
                            60 2.52  49 2.53  52 2.54  61 2.55
  22  0.918  0.087  0.287-   2 2.43   8 2.43  20 2.44  10 2.46  13 2.46  48 2.47  26 2.47  21 2.52
                            50 2.53  49 2.54  61 2.55  51 2.58
  23  0.002  0.500  0.094-  53 2.48  32 2.48   9 2.51  27 2.52  17 2.52  30 2.52  59 2.52  25 2.52
                            34 2.52
  24  0.001  0.499  0.379-  62 2.40  61 2.44  10 2.46  43 2.48  33 2.49  54 2.50  18 2.50  31 2.52
                            28 2.54
  25  0.081  0.416  0.193-  61 2.40  62 2.44  26 2.45  20 2.49  59 2.49  57 2.51  34 2.51  13 2.51
                             9 2.52  23 2.52  37 2.52  53 2.53
  26  0.166  0.330  0.284-  54 2.40  13 2.42  57 2.42  12 2.44  25 2.45  10 2.46  22 2.47  62 2.48
                            51 2.50  41 2.50  58 2.53  61 2.55
  27  0.752  0.502  0.095-  55 2.46  38 2.50  59 2.50  30 2.50  42 2.51  23 2.52  17 2.52  14 2.53
                            29 2.54
  28  0.747  0.499  0.379-  63 2.40  15 2.46  60 2.46  43 2.47  39 2.48  56 2.49  18 2.51  31 2.53
                            24 2.54
  29  0.584  0.416  0.193-  60 2.39  63 2.42  58 2.42  19 2.49  55 2.49  59 2.50  16 2.51  14 2.51
                            40 2.51  42 2.52  57 2.53  27 2.54
  30  0.001  0.751  0.095-   3 2.50  32 2.50  27 2.50   1 2.50  38 2.50  34 2.51  44 2.51  42 2.52
                            23 2.52
  31  1.000  0.750  0.379-  50 2.45  46 2.46  43 2.47   2 2.52  24 2.52  39 2.52  33 2.53   4 2.53
                            28 2.53
  32  0.249  0.749  0.094-  23 2.48  30 2.50  37 2.50  53 2.50  34 2.51   5 2.51  35 2.51   3 2.52
                            45 2.53
  33  0.250  0.746  0.379-  62 2.45  54 2.45  47 2.47  46 2.47  24 2.49  36 2.49  31 2.53   6 2.53
                             4 2.56
  34  0.084  0.668  0.191-  43 2.46  46 2.46  44 2.50  42 2.50  37 2.50  45 2.50  30 2.51  59 2.51
                            32 2.51  25 2.51  62 2.52  23 2.52
  35  0.500  0.749  0.095-  40 2.50  37 2.50   7 2.50   5 2.51  55 2.51  32 2.51  38 2.51  53 2.51
                            64 2.53
  36  0.497  0.744  0.379-  54 2.44  41 2.47  56 2.47  49 2.47  47 2.49  33 2.49  39 2.49   8 2.55
                             6 2.57
  37  0.333  0.667  0.191-  41 2.45  47 2.45  45 2.50  57 2.50  32 2.50  34 2.50  53 2.50  64 2.50
                            35 2.50  40 2.51  25 2.52  62 2.52
  38  0.751  0.751  0.095-  55 2.47  42 2.50   7 2.50  27 2.50  40 2.50   1 2.50  30 2.50  35 2.51
                            48 2.52
  39  0.746  0.745  0.378-  63 2.44  49 2.46  50 2.46  28 2.48  56 2.48  36 2.49  31 2.52   8 2.53
                             2 2.58
  40  0.583  0.667  0.191-  41 2.44  49 2.45  55 2.47  38 2.50  35 2.50  63 2.50  64 2.50  48 2.51
                            37 2.51  42 2.51  57 2.51  29 2.51
  41  0.415  0.581  0.284-  56 2.37  54 2.37  57 2.40  40 2.44  37 2.45  36 2.47  63 2.50  26 2.50
                            62 2.51  58 2.51  49 2.52  47 2.53
  42  0.834  0.668  0.192-  43 2.45  50 2.46  38 2.50  44 2.50  59 2.50  34 2.50  63 2.51  48 2.51
                            27 2.51  40 2.51  30 2.52  29 2.52
  43  0.915  0.582  0.285-  61 2.43  59 2.44  42 2.45  34 2.46  28 2.47  31 2.47  24 2.48  60 2.49
                            63 2.51  62 2.51  50 2.51  46 2.53
  44  0.083  0.917  0.192-  50 2.45  51 2.46  46 2.46   1 2.49  42 2.50  34 2.50  13 2.50  16 2.51
                            30 2.51   3 2.51  48 2.51  45 2.52
  45  0.334  0.917  0.192-  47 2.43  46 2.45   5 2.49  19 2.50  64 2.50  37 2.50  34 2.50  16 2.51
                             3 2.52  44 2.52  52 2.52  32 2.53
  46  0.168  0.834  0.286-  45 2.45   4 2.45  31 2.46  34 2.46  44 2.46  33 2.47  51 2.48  47 2.49
                            50 2.52  43 2.53  52 2.55  62 2.57
  47  0.416  0.833  0.285-  45 2.43  64 2.43   6 2.45  37 2.45  33 2.47  36 2.49  46 2.49  49 2.50
                            21 2.52  41 2.53  62 2.56  52 2.60
  48  0.832  0.917  0.193-  49 2.43  50 2.44  22 2.47  20 2.49  64 2.50  13 2.51  40 2.51   7 2.51
                            42 2.51  44 2.51  38 2.52   1 2.52
  49  0.665  0.833  0.285-  48 2.43  64 2.43  40 2.45  39 2.46   8 2.46  36 2.47  47 2.50  41 2.52
                            50 2.52  21 2.53  22 2.54  63 2.57
  50  0.917  0.834  0.286-  48 2.44   2 2.45  31 2.45  44 2.45  42 2.46  39 2.46  43 2.51  46 2.52
                            49 2.52  22 2.53  51 2.55  63 2.58
  51  0.174  0.085  0.285-  52 2.39  16 2.41   4 2.42  12 2.45   2 2.46  44 2.46  58 2.47  13 2.48
                            46 2.48  26 2.50  50 2.55  22 2.58
  52  0.417  0.093  0.286-  58 2.38  51 2.39  16 2.42   4 2.42  15 2.42  19 2.44   6 2.45  60 2.46
                            45 2.52  21 2.54  46 2.55  47 2.60
  53  0.248  0.499  0.095-  23 2.48  32 2.50  37 2.50  11 2.50   9 2.51  57 2.51  35 2.51  25 2.53
                            55 2.57
  54  0.251  0.503  0.373-  62 2.29  41 2.37  26 2.40  36 2.44  33 2.45  10 2.48  24 2.50  56 2.50
                            12 2.51
  55  0.506  0.503  0.096-  27 2.46  40 2.47  38 2.47  29 2.49  35 2.51  14 2.51  57 2.55  11 2.55
                            53 2.57
  56  0.499  0.499  0.372-  63 2.31  58 2.36  41 2.37  12 2.46  36 2.47  15 2.47  39 2.48  28 2.49
                            54 2.50
  57  0.331  0.417  0.192-  41 2.40  26 2.42  58 2.46  37 2.50  13 2.50  25 2.51  53 2.51  40 2.51
                            11 2.52  16 2.52  29 2.53  55 2.55
  58  0.419  0.332  0.285-  56 2.36  52 2.38  29 2.42  16 2.43  63 2.43  12 2.44  60 2.45  15 2.45
                            57 2.46  51 2.47  41 2.51  26 2.53
  59  0.834  0.418  0.191-  61 2.41  43 2.44  60 2.45  17 2.48  25 2.49  29 2.50  42 2.50  27 2.50
                            34 2.51  23 2.52  19 2.52  20 2.53
  60  0.665  0.336  0.284-  29 2.39  19 2.41  63 2.41  58 2.45  59 2.45  28 2.46  52 2.46  18 2.48
                            15 2.49  43 2.49  61 2.50  21 2.52
  61  0.917  0.341  0.284-  25 2.40  62 2.41  59 2.41  43 2.43  24 2.44  18 2.45  20 2.45  60 2.50
                            10 2.51  21 2.55  26 2.55  22 2.55
  62  0.162  0.575  0.287-  54 2.29  24 2.40  61 2.41  25 2.44  33 2.45  26 2.48  41 2.51  43 2.51
                            34 2.52  37 2.52  47 2.56  46 2.57
  63  0.662  0.575  0.286-  56 2.31  28 2.40  60 2.41  29 2.42  58 2.43  39 2.44  41 2.50  40 2.50
                            42 2.51  43 2.51  49 2.57  50 2.58
  64  0.583  0.917  0.193-  49 2.43  47 2.43  21 2.43  48 2.50  45 2.50  37 2.50  40 2.50   7 2.51
                             5 2.51  20 2.51  19 2.52  35 2.53
 

IMPORTANT INFORMATION: All symmetrisations will be switched off!
NOSYMM: (Re-)initialisation of all symmetry stuff for point group C_1.

 
 

Automatic generation of k-mesh.
 generate k-points for:    3    3    1
Space group operators:
 irot       det(A)        alpha          n_x          n_y          n_z        tau_x        tau_y        tau_z
    1     1.000000     0.000000     1.000000     0.000000     0.000000     0.000000     0.000000     0.000000
 
 Subroutine IBZKPT returns following result:
 ===========================================
 
 Found      5 irreducible k-points:
 
 Following reciprocal coordinates:
            Coordinates               Weight
  0.000000  0.000000  0.000000      1.000000
  0.333333  0.000000  0.000000      2.000000
  0.000000  0.333333  0.000000      2.000000
  0.333333  0.333333  0.000000      2.000000
 -0.333333  0.333333  0.000000      2.000000
 
 Following cartesian coordinates:
            Coordinates               Weight
  0.000000  0.000000  0.000000      1.000000
  0.033244  0.019194  0.000000      2.000000
  0.000000  0.038387  0.000000      2.000000
  0.033244  0.057581  0.000000      2.000000
 -0.033244  0.019194  0.000000      2.000000
 


--------------------------------------------------------------------------------------------------------




 Dimension of arrays:
   k-points           NKPTS =      5   k-points in BZ     NKDIM =      5   number of bands    NBANDS=    414
   number of dos      NEDOS =    301   number of ions     NIONS =     64
   non local maximal  LDIM  =      6   non local SUM 2l+1 LMDIM =     18
   total plane-waves  NPLWV = ******
   max r-space proj   IRMAX =   8439   max aug-charges    IRDMAX=  19969
   dimension x,y,z NGX =    80 NGY =   80 NGZ =  160
   dimension x,y,z NGXF=   160 NGYF=  160 NGZF=  320
   support grid    NGXF=   160 NGYF=  160 NGZF=  320
   ions per type =              50  14
   NGX,Y,Z   is equivalent  to a cutoff of  13.26, 13.26, 12.55 a.u.
   NGXF,Y,Z  is equivalent  to a cutoff of  26.53, 26.53, 25.11 a.u.

 SYSTEM =  SQS-NiFe                                
 POSCAR =  POSCAR                                  

 Startparameter for this run:
   NWRITE =      2    write-flag & timer
   PREC   = accura    normal or accurate (medium, high low for compatibility)
   ISTART =      0    job   : 0-new  1-cont  2-samecut
   ICHARG =      1    charge: 1-file 2-atom 10-const
   ISPIN  =      2    spin polarized calculation?
   LNONCOLLINEAR =      F non collinear calculations
   LSORBIT =      F    spin-orbit coupling
   INIWAV =      1    electr: 0-lowe 1-rand  2-diag
   LASPH  =      F    aspherical Exc in radial PAW
   METAGGA=      F    non-selfconsistent MetaGGA calc.

 Electronic Relaxation 1
   ENCUT  =  520.0 eV  38.22 Ry    6.18 a.u.  18.64 18.64 39.40*2*pi/ulx,y,z
   ENINI  =  520.0     initial cutoff
   ENAUG  =  544.6 eV  augmentation charge cutoff
   NELM   =    200;   NELMIN=  2; NELMDL= -5     # of ELM steps 
   EDIFF  = 0.1E-04   stopping-criterion for ELM
   LREAL  =      T    real-space projection
   NLSPLINE    = F    spline interpolate recip. space projectors
   LCOMPAT=      F    compatible to vasp.4.4
   GGA_COMPAT  = T    GGA compatible to vasp.4.4-vasp.4.6
   LMAXPAW     = -100 max onsite density
   LMAXMIX     =    2 max onsite mixed and CHGCAR
   VOSKOWN=      0    Vosko Wilk Nusair interpolation
   ROPT   =   -0.00025  -0.00025
 Ionic relaxation
   EDIFFG = -.5E-01   stopping-criterion for IOM
   NSW    =     99    number of steps for IOM
   NBLOCK =      1;   KBLOCK =     99    inner block; outer block 
   IBRION =      2    ionic relax: 0-MD 1-quasi-New 2-CG
   NFREE  =      1    steps in history (QN), initial steepest desc. (CG)
   ISIF   =      2    stress and relaxation
   IWAVPR =     11    prediction:  0-non 1-charg 2-wave 3-comb
   ISYM   =      0    0-nonsym 1-usesym 2-fastsym
   LCORR  =      T    Harris-Foulkes like correction to forces

   POTIM  = 0.5000    time-step for ionic-motion
   TEIN   =    0.0    initial temperature
   TEBEG  =    0.0;   TEEND  =   0.0 temperature during run
   SMASS  =  -3.00    Nose mass-parameter (am)
   estimated Nose-frequenzy (Omega)   =  0.10E-29 period in steps =****** mass=  -0.230E-26a.u.
   SCALEE = 1.0000    scale energy and forces
   NPACO  =    256;   APACO  = 16.0  distance and # of slots for P.C.
   PSTRESS=    0.0 pullay stress

  Mass of Ions in am
   POMASS =  58.69 55.85
  Ionic Valenz
   ZVAL   =  10.00  8.00
  Atomic Wigner-Seitz radii
   RWIGS  =  -1.00 -1.00
  virtual crystal weights 
   VCA    =   1.00  1.00
   NELECT =     612.0000    total number of electrons
   NUPDOWN=      -1.0000    fix difference up-down

 DOS related values:
   EMIN   =  10.00;   EMAX   =-10.00  energy-range for DOS
   EFERMI =   0.00
   ISMEAR =     1;   SIGMA  =   0.20  broadening in eV -4-tet -1-fermi 0-gaus

 Electronic relaxation 2 (details)
   IALGO  =     68    algorithm
   LDIAG  =      T    sub-space diagonalisation (order eigenvalues)
   LSUBROT=      F    optimize rotation matrix (better conditioning)
   TURBO    =      0    0=normal 1=particle mesh
   IRESTART =      0    0=no restart 2=restart with 2 vectors
   NREBOOT  =      0    no. of reboots
   NMIN     =      0    reboot dimension
   EREF     =   0.00    reference energy to select bands
   IMIX   =      4    mixing-type and parameters
     AMIX     =   0.40;   BMIX     =  1.00
     AMIX_MAG =   1.60;   BMIX_MAG =  1.00
     AMIN     =   0.10
     WC   =   100.;   INIMIX=   1;  MIXPRE=   1;  MAXMIX= -45

 Intra band minimization:
   WEIMIN = 0.0010     energy-eigenvalue tresh-hold
   EBREAK =  0.60E-08  absolut break condition
   DEPER  =   0.30     relativ break condition  

   TIME   =   0.40     timestep for ELM

  volume/ion in A,a.u.               =      28.83       194.53
  Fermi-wavevector in a.u.,A,eV,Ry     =   1.133281  2.141591 17.474320  1.284326
  Thomas-Fermi vector in A             =   2.269984
 
 Write flags
   LWAVE        =      F    write WAVECAR
   LDOWNSAMPLE  =      F    k-point downsampling of WAVECAR
   LCHARG       =      T    write CHGCAR
   LVTOT        =      F    write LOCPOT, total local potential
   LVHAR        =      F    write LOCPOT, Hartree potential only
   LELF         =      F    write electronic localiz. function (ELF)
   LORBIT       =     10    0 simple, 1 ext, 2 COOP (PROOUT), +10 PAW based schemes


 Dipole corrections
   LMONO  =      F    monopole corrections only (constant potential shift)
   LDIPOL =      T    correct potential (dipole corrections)
   IDIPOL =      3    1-x, 2-y, 3-z, 4-all directions 
   EPSILON=  1.0000000 bulk dielectric constant

 Exchange correlation treatment:
   GGA     =    --    GGA type
   LEXCH   =     8    internal setting for exchange type
   VOSKOWN=      0    Vosko Wilk Nusair interpolation
   LHFCALC =     F    Hartree Fock is set to
   LHFONE  =     F    Hartree Fock one center treatment
   AEXX    =    0.0000 exact exchange contribution

 Linear response parameters
   LEPSILON=     F    determine dielectric tensor
   LRPA    =     F    only Hartree local field effects (RPA)
   LNABLA  =     F    use nabla operator in PAW spheres
   LVEL    =     F    velocity operator in full k-point grid
   LINTERFAST=   F  fast interpolation
   KINTER  =     0    interpolate to denser k-point grid
   CSHIFT  =0.1000    complex shift for real part using Kramers Kronig
   OMEGAMAX=  -1.0    maximum frequency
   DEG_THRESHOLD= 0.2000000E-02 threshold for treating states as degnerate
   RTIME   =   -0.100 relaxation time in fs
  (WPLASMAI=    0.000 imaginary part of plasma frequency in eV, 0.658/RTIME)
   DFIELD  = 0.0000000 0.0000000 0.0000000 field for delta impulse in time
 
 Orbital magnetization related:
   ORBITALMAG=     F  switch on orbital magnetization
   LCHIMAG   =     F  perturbation theory with respect to B field
   DQ        =  0.001000  dq finite difference perturbation B field
   LLRAUG    =     F  two centre corrections for induced B field



--------------------------------------------------------------------------------------------------------


 conjugate gradient relaxation of ions
   using selective dynamics as specified on POSCAR
 charge density and potential will be updated during run
 spin polarized calculation
 RMM-DIIS sequential band-by-band and
  variant of blocked Davidson during initial phase
 perform sub-space diagonalisation
    before iterative eigenvector-optimisation
 modified Broyden-mixing scheme, WC =      100.0
 initial mixing is a Kerker type mixing with AMIX =  0.4000 and BMIX =      1.0000
 Hartree-type preconditioning will be used
 using additional bands          108
 real space projection scheme for non local part
 use partial core corrections
 calculate Harris-corrections to forces 
   (improved forces if not selfconsistent)
 use gradient corrections 
 use of overlap-Matrix (Vanderbilt PP)
 Methfessel and Paxton  Order N= 1 SIGMA  =   0.20


--------------------------------------------------------------------------------------------------------


  energy-cutoff  :      520.00
  volume of cell :     1844.86
      direct lattice vectors                 reciprocal lattice vectors
    10.026770000  0.000000000  0.000000000     0.099733015  0.057580883  0.000000000
    -5.013385000  8.683437540  0.000000000     0.000000000  0.115161766  0.000000000
     0.000000000  0.000000000 21.188983070     0.000000000  0.000000000  0.047194337

  length of vectors
    10.026770000 10.026770002 21.188983070     0.115161766  0.115161766  0.047194337


 
 k-points in units of 2pi/SCALE and weight: read from INCAR                         
   0.00000000  0.00000000  0.00000000       0.111
   0.03324434  0.01919363  0.00000000       0.222
   0.00000000  0.03838726  0.00000000       0.222
   0.03324434  0.05758088  0.00000000       0.222
  -0.03324434  0.01919363  0.00000000       0.222
 
 k-points in reciprocal lattice and weights: read from INCAR                         
   0.00000000  0.00000000  0.00000000       0.111
   0.33333333  0.00000000  0.00000000       0.222
   0.00000000  0.33333333  0.00000000       0.222
   0.33333333  0.33333333  0.00000000       0.222
  -0.33333333  0.33333333  0.00000000       0.222
 
 position of ions in fractional coordinates (direct lattice) 
   0.00052900  0.00053000  0.09593319
   0.00332074  0.00280765  0.37790871
   0.25001300  0.00028700  0.09507516
   0.25203988  0.00249005  0.37862552
   0.49948700  0.99908000  0.09580077
   0.49944922  0.00109347  0.37740108
   0.74930200  0.99919300  0.09588248
   0.74936494  0.99975009  0.37835861
   0.99864000  0.24850700  0.09577903
   0.00328827  0.25575195  0.37944237
   0.25012600  0.25021600  0.09542058
   0.25391948  0.25430439  0.37785118
   0.08288200  0.16633200  0.19236263
   0.50064200  0.24891300  0.09586799
   0.50152223  0.25376012  0.38002226
   0.33293900  0.16685800  0.19242841
   0.75052500  0.25006200  0.09669473
   0.75099138  0.25066633  0.37725429
   0.58230700  0.16720100  0.19338931
   0.83403200  0.16672400  0.19313692
   0.66550398  0.08482096  0.28441122
   0.91760657  0.08653936  0.28653206
   0.00183400  0.50047500  0.09438867
   0.00064260  0.49928278  0.37926253
   0.08092200  0.41609700  0.19263386
   0.16616001  0.33016301  0.28448849
   0.75170200  0.50186900  0.09460572
   0.74686146  0.49892717  0.37865129
   0.58357300  0.41617200  0.19261966
   0.00109100  0.75115300  0.09468309
   0.99996716  0.75029207  0.37888330
   0.24902600  0.74885700  0.09449183
   0.24979317  0.74594183  0.37926463
   0.08375800  0.66810400  0.19148344
   0.49972500  0.74917300  0.09464107
   0.49655952  0.74358306  0.37894046
   0.33297400  0.66727700  0.19107398
   0.75128300  0.75093600  0.09543333
   0.74564449  0.74519568  0.37812609
   0.58298100  0.66668200  0.19119569
   0.41507176  0.58054287  0.28365073
   0.83395900  0.66770600  0.19166513
   0.91547474  0.58218082  0.28468460
   0.08291700  0.91685800  0.19187232
   0.33420600  0.91705400  0.19206792
   0.16809036  0.83414192  0.28566142
   0.41564716  0.83291299  0.28465101
   0.83233100  0.91715000  0.19302274
   0.66518585  0.83257507  0.28487322
   0.91680816  0.83355707  0.28556662
   0.17390575  0.08464430  0.28541788
   0.41674969  0.09316237  0.28647971
   0.24829900  0.49904600  0.09513485
   0.25106303  0.50264837  0.37304509
   0.50648100  0.50259500  0.09587930
   0.49888155  0.49873133  0.37247979
   0.33134100  0.41714300  0.19246231
   0.41906449  0.33212349  0.28476363
   0.83354800  0.41839000  0.19117395
   0.66491822  0.33590070  0.28367941
   0.91712497  0.34098595  0.28401169
   0.16225743  0.57522376  0.28738588
   0.66158109  0.57477518  0.28643264
   0.58310400  0.91651500  0.19252114
 
 position of ions in cartesian coordinates  (Angst):
   0.00264707  0.00460222  2.03272674
   0.01922051  0.02438005  8.00750122
   2.50538401  0.00249215  2.01454596
   2.51466234  0.02162223  8.02268976
  -0.00053142  8.67544878  2.02992089
   5.00238050  0.00949506  7.99674518
   2.50373962  8.67643001  2.03165225
   2.50157780  8.68126744  8.01703416
   8.76727233  2.15789501  2.02946025
  -1.24921229  2.22080610  8.03999792
   1.25352673  2.17273501  2.02186505
   1.27106637  2.20823629  8.00628233
  -0.00284760  1.44433353  4.07596851
   3.77192549  2.16142049  2.03134522
   3.75645082  2.20351018  8.05228527
   2.50177938  1.44890102  4.07736232
   6.27168447  2.17139776  2.04886300
   6.27333100  2.17664545  7.99363481
   5.00041537  1.45187944  4.09772282
   7.52679544  1.44773744  4.09237493
   6.24761525  0.73653752  6.02638461
   8.76677491  0.75145909  6.07132295
  -2.49068476  4.34584340  1.99999993
  -2.49665364  4.33549083  8.03618734
  -1.27466818  3.61315231  4.08171560
   0.01081393  2.86694984  6.02802178
   5.02108055  4.35794811  2.00459900
   4.98729408  4.33240289  8.02323588
   3.76492179  3.61380357  4.08141471
  -3.75487998  6.52259016  2.00623839
   6.26493768  6.51511434  8.02815193
  -1.25738202  6.50265299  2.00218579
  -1.23507488  6.47733929  8.03623193
  -2.50964037  5.80143935  4.05733937
   1.25473496  6.50539695  2.00534803
   1.25101993  6.45685706  8.02936302
  -0.00666279  5.79425815  4.04866333
   3.76821057  6.52070585  2.02213521
   3.74045292  6.47086013  8.01210737
   2.50308286  5.78909151  4.05124224
   1.25134418  5.04110778  6.01027061
   5.01444784  5.79798335  4.06118919
   6.26055801  5.05533082  6.03217707
  -3.76517246  7.96147918  4.06557934
  -1.24653807  7.96318113  4.06972391
  -2.49647125  7.24321929  6.05287494
  -0.00811505  7.23254793  6.03146553
   3.74756545  7.96401474  4.08995557
   2.49564612  7.22961366  6.03617379
   5.01368200  7.23814076  6.05086619
   1.31935852  0.73500348  6.04771454
   3.71159445  0.80896964  6.07021363
  -0.01227277  4.33343477  2.01581073
  -0.00261857  4.36471569  7.90444619
   2.55866626  4.36425229  2.03158486
   2.50183842  4.33070232  7.89246792
   1.23098154  3.62223519  4.07808063
   2.53680031  2.88397359  6.03385183
   6.26024393  3.63306343  4.05078159
   4.98298250  2.91677279  6.01087811
   7.48630725  2.96093023  6.01791885
  -1.25690021  4.99491963  6.08941454
   3.75195213  4.99102435  6.06921629
   1.25180714  7.95850076  4.07932718
 


--------------------------------------------------------------------------------------------------------


 k-point  1 :   0.0000 0.0000 0.0000  plane waves:   49741
 k-point  2 :   0.3333 0.0000 0.0000  plane waves:   49680
 k-point  3 :   0.0000 0.3333 0.0000  plane waves:   49680
 k-point  4 :   0.3333 0.3333 0.0000  plane waves:   49662
 k-point  5 :  -0.3333 0.3333 0.0000  plane waves:   49680

 maximum and minimum number of plane-waves per node :      2099     2053

 maximum number of plane-waves:     49741
 maximum index in each direction: 
   IXMAX=   18   IYMAX=   18   IZMAX=   39
   IXMIN=  -18   IYMIN=  -18   IZMIN=  -39


 real space projection operators:
  total allocation   :      63934.45 KBytes
  max/ min on nodes  :       3192.19       2384.16


 parallel 3D FFT for wavefunctions:
    minimum data exchange during FFTs selected (reduces bandwidth)
 parallel 3D FFT for charge:
    minimum data exchange during FFTs selected (reduces bandwidth)


 total amount of memory used by VASP MPI-rank0   113068. kBytes
=======================================================================

   base      :      30000. kBytes
   nonlr-proj:      13088. kBytes
   fftplans  :       6402. kBytes
   grid      :      16455. kBytes
   one-center:         93. kBytes
   wavefun   :      47030. kBytes
 
     INWAV:  cpu time    0.0010: real time    0.0001
 Broyden mixing: mesh for mixing (old mesh)
   NGX = 37   NGY = 37   NGZ = 79
  (NGX  =160   NGY  =160   NGZ  =320)
  gives a total of 108151 points

 initial charge density was supplied:
 number of electron     612.0000044 magnetization      92.0000000
 keeping initial charge density in first step


--------------------------------------------------------------------------------------------------------


 Maximum index for non-local projection operator          770
 Maximum index for augmentation-charges         1137 (set IRDMAX)


--------------------------------------------------------------------------------------------------------


 First call to EWALD:  gamma=   0.145
 Maximum number of real-space cells 4x 4x 2
 Maximum number of reciprocal cells 2x 2x 4

    FEWALD:  cpu time    0.0070: real time    0.0061


--------------------------------------- Iteration      1(   1)  ---------------------------------------


    POTLOK:  cpu time    0.2650: real time    0.2691
    SETDIJ:  cpu time    0.0200: real time    0.0215
     EDDAV:  cpu time   25.1682: real time   25.2541
       DOS:  cpu time    0.0050: real time    0.0053
    --------------------------------------------
      LOOP:  cpu time   25.4581: real time   25.5502

 eigenvalue-minimisations  :  8280
 total energy-change (2. order) : 0.4634166E+04  (-0.2694434E+05)
 number of electron     612.0000044 magnetization      92.0000000
 augmentation part      612.0000044 magnetization      92.0000000

 DIPCOR: dipole corrections for dipol
 direction  3 min pos   233,
 dipolmoment           0.000000      0.000000     -0.064170 electrons x Angstroem
 Tr[quadrupol]    -10438.435267

 energy correction for charged system         0.000000 eV
 dipol+quadrupol energy correction           -0.000202 eV
 added-field ion interaction          0.982755 eV  (added to PSCEN)


 Free energy of the ion-electron system (eV)
  ---------------------------------------------------
  alpha Z        PSCENC =      1248.11956824
  Ewald energy   TEWEN  =    220008.46431484
  -Hartree energ DENC   =   -280704.79994084
  -exchange      EXHF   =         0.00000000
  -V(xc)+E(xc)   XCENC  =      1586.59186588
  PAW double counting   =     65489.06297432   -69019.80241910
  entropy T*S    EENTRO =         0.00275699
  eigenvalues    EBANDS =      3822.60295365
  atomic energy  EATOM  =     62203.92349997
  Solvation  Ediel_sol  =         0.00000000
  ---------------------------------------------------
  free energy    TOTEN  =      4634.16557396 eV

  energy without entropy =     4634.16281697  energy(sigma->0) =     4634.16465496


--------------------------------------------------------------------------------------------------------




--------------------------------------- Iteration      1(   2)  ---------------------------------------


     EDDAV:  cpu time   25.1812: real time   25.4120
       DOS:  cpu time    0.0070: real time    0.0068
    --------------------------------------------
      LOOP:  cpu time   25.1882: real time   25.4188

 eigenvalue-minimisations  :  8280
 total energy-change (2. order) :-0.4543652E+04  (-0.4278280E+04)
 number of electron     612.0000044 magnetization      92.0000000
 augmentation part      612.0000044 magnetization      92.0000000

 DIPCOR: dipole corrections for dipol
 direction  3 min pos   233,
 dipolmoment           0.000000      0.000000     -0.064170 electrons x Angstroem
 Tr[quadrupol]    -10438.435267

 energy correction for charged system         0.000000 eV
 dipol+quadrupol energy correction           -0.000202 eV
 added-field ion interaction          0.982755 eV  (added to PSCEN)


 Free energy of the ion-electron system (eV)
  ---------------------------------------------------
  alpha Z        PSCENC =      1248.11956824
  Ewald energy   TEWEN  =    220008.46431484
  -Hartree energ DENC   =   -280704.79994084
  -exchange      EXHF   =         0.00000000
  -V(xc)+E(xc)   XCENC  =      1586.59186588
  PAW double counting   =     65489.06297432   -69019.80241910
  entropy T*S    EENTRO =         0.00896451
  eigenvalues    EBANDS =      -721.05506316
  atomic energy  EATOM  =     62203.92349997
  Solvation  Ediel_sol  =         0.00000000
  ---------------------------------------------------
  free energy    TOTEN  =        90.51376467 eV

  energy without entropy =       90.50480016  energy(sigma->0) =       90.51077650


--------------------------------------------------------------------------------------------------------




--------------------------------------- Iteration      1(   3)  ---------------------------------------


     EDDAV:  cpu time   25.9211: real time   25.9948
       DOS:  cpu time    0.0070: real time    0.0076
    --------------------------------------------
      LOOP:  cpu time   25.9281: real time   26.0025

 eigenvalue-minimisations  :  8523
 total energy-change (2. order) :-0.4362368E+03  (-0.3749068E+03)
 number of electron     612.0000044 magnetization      92.0000000
 augmentation part      612.0000044 magnetization      92.0000000

 DIPCOR: dipole corrections for dipol
 direction  3 min pos   233,
 dipolmoment           0.000000      0.000000     -0.064170 electrons x Angstroem
 Tr[quadrupol]    -10438.435267

 energy correction for charged system         0.000000 eV
 dipol+quadrupol energy correction           -0.000202 eV
 added-field ion interaction          0.982755 eV  (added to PSCEN)


 Free energy of the ion-electron system (eV)
  ---------------------------------------------------
  alpha Z        PSCENC =      1248.11956824
  Ewald energy   TEWEN  =    220008.46431484
  -Hartree energ DENC   =   -280704.79994084
  -exchange      EXHF   =         0.00000000
  -V(xc)+E(xc)   XCENC  =      1586.59186588
  PAW double counting   =     65489.06297432   -69019.80241910
  entropy T*S    EENTRO =        -0.03513926
  eigenvalues    EBANDS =     -1157.24771195
  atomic energy  EATOM  =     62203.92349997
  Solvation  Ediel_sol  =         0.00000000
  ---------------------------------------------------
  free energy    TOTEN  =      -345.72298790 eV

  energy without entropy =     -345.68784864  energy(sigma->0) =     -345.71127481


--------------------------------------------------------------------------------------------------------




--------------------------------------- Iteration      1(   4)  ---------------------------------------


     EDDAV:  cpu time   26.9009: real time   26.9556
       DOS:  cpu time    0.0080: real time    0.0080
    --------------------------------------------
      LOOP:  cpu time   26.9089: real time   26.9636

 eigenvalue-minimisations  :  8829
 total energy-change (2. order) :-0.1847408E+02  (-0.1811836E+02)
 number of electron     612.0000044 magnetization      92.0000000
 augmentation part      612.0000044 magnetization      92.0000000

 DIPCOR: dipole corrections for dipol
 direction  3 min pos   233,
 dipolmoment           0.000000      0.000000     -0.064170 electrons x Angstroem
 Tr[quadrupol]    -10438.435267

 energy correction for charged system         0.000000 eV
 dipol+quadrupol energy correction           -0.000202 eV
 added-field ion interaction          0.982755 eV  (added to PSCEN)


 Free energy of the ion-electron system (eV)
  ---------------------------------------------------
  alpha Z        PSCENC =      1248.11956824
  Ewald energy   TEWEN  =    220008.46431484
  -Hartree energ DENC   =   -280704.79994084
  -exchange      EXHF   =         0.00000000
  -V(xc)+E(xc)   XCENC  =      1586.59186588
  PAW double counting   =     65489.06297432   -69019.80241910
  entropy T*S    EENTRO =        -0.03939104
  eigenvalues    EBANDS =     -1175.71753753
  atomic energy  EATOM  =     62203.92349997
  Solvation  Ediel_sol  =         0.00000000
  ---------------------------------------------------
  free energy    TOTEN  =      -364.19706525 eV

  energy without entropy =     -364.15767421  energy(sigma->0) =     -364.18393491


--------------------------------------------------------------------------------------------------------




--------------------------------------- Iteration      1(   5)  ---------------------------------------


     EDDAV:  cpu time   28.3367: real time   28.4079
       DOS:  cpu time    0.0080: real time    0.0079
    CHARGE:  cpu time    0.9938: real time    0.9953
    MIXING:  cpu time    0.0050: real time    0.0047
    --------------------------------------------
      LOOP:  cpu time   29.3435: real time   29.4158

 eigenvalue-minimisations  :  9855
 total energy-change (2. order) :-0.3581504E+00  (-0.3579828E+00)
 number of electron     612.0000042 magnetization      89.5030444
 augmentation part      368.0017502 magnetization      74.6280084

 DIPCOR: dipole corrections for dipol
 direction  3 min pos   233,
 dipolmoment           0.000000      0.000000     -0.064170 electrons x Angstroem
 Tr[quadrupol]    -10438.435267

 energy correction for charged system         0.000000 eV
 dipol+quadrupol energy correction           -0.000202 eV
 added-field ion interaction          0.982755 eV  (added to PSCEN)


 Broyden mixing:
  rms(total) = 0.30409E+01    rms(broyden)= 0.30407E+01
  rms(prec ) = 0.31184E+01
  weight for this iteration     100.00

 Free energy of the ion-electron system (eV)
  ---------------------------------------------------
  alpha Z        PSCENC =      1248.11956824
  Ewald energy   TEWEN  =    220008.46431484
  -Hartree energ DENC   =   -280704.79994084
  -exchange      EXHF   =         0.00000000
  -V(xc)+E(xc)   XCENC  =      1586.59186588
  PAW double counting   =     65489.06297432   -69019.80241910
  entropy T*S    EENTRO =        -0.03935176
  eigenvalues    EBANDS =     -1176.07572725
  atomic energy  EATOM  =     62203.92349997
  Solvation  Ediel_sol  =         0.00000000
  ---------------------------------------------------
  free energy    TOTEN  =      -364.55521570 eV

  energy without entropy =     -364.51586394  energy(sigma->0) =     -364.54209844


--------------------------------------------------------------------------------------------------------




--------------------------------------- Iteration      1(   6)  ---------------------------------------


    POTLOK:  cpu time    0.2450: real time    0.2456
    SETDIJ:  cpu time    0.0200: real time    0.0193
    EDDIAG:  cpu time    3.7994: real time    3.8062
  RMM-DIIS:  cpu time   14.9767: real time   15.0112
    ORTHCH:  cpu time    0.6549: real time    0.6565
       DOS:  cpu time    0.0080: real time    0.0076
    CHARGE:  cpu time    0.9988: real time    0.9996
    MIXING:  cpu time    0.0050: real time    0.0047
    --------------------------------------------
      LOOP:  cpu time   20.7079: real time   20.7507

 eigenvalue-minimisations  :  8330
 total energy-change (2. order) :-0.5875244E+02  (-0.2432239E+01)
 number of electron     612.0000052 magnetization      88.9755732
 augmentation part      363.8578683 magnetization      75.9147195

 DIPCOR: dipole corrections for dipol
 direction  3 min pos   233,
 dipolmoment           0.000000      0.000000      1.338347 electrons x Angstroem
 Tr[quadrupol]    -10439.373208

 energy correction for charged system         0.000000 eV
 dipol+quadrupol energy correction           -0.087848 eV
 added-field ion interaction        -20.496625 eV  (added to PSCEN)


 Broyden mixing:
  rms(total) = 0.97234E+01    rms(broyden)= 0.97232E+01
  rms(prec ) = 0.12923E+02
  weight for this iteration     100.00

 eigenvalues of (default mixing * dielectric matrix)
  average eigenvalue GAMMA=   0.2550
  0.2550

 Free energy of the ion-electron system (eV)
  ---------------------------------------------------
  alpha Z        PSCENC =      1226.55254238
  Ewald energy   TEWEN  =    220008.46431484
  -Hartree energ DENC   =   -280780.38225637
  -exchange      EXHF   =         0.00000000
  -V(xc)+E(xc)   XCENC  =      1595.91655786
  PAW double counting   =     65784.65021661   -69327.15350702
  entropy T*S    EENTRO =        -0.00396730
  eigenvalues    EBANDS =     -1135.27506087
  atomic energy  EATOM  =     62203.92349997
  Solvation  Ediel_sol  =         0.00000000
  ---------------------------------------------------
  free energy    TOTEN  =      -423.30765988 eV

  energy without entropy =     -423.30369258  energy(sigma->0) =     -423.30633744


--------------------------------------------------------------------------------------------------------




--------------------------------------- Iteration      1(   7)  ---------------------------------------


    POTLOK:  cpu time    0.2600: real time    0.2616
    SETDIJ:  cpu time    0.0200: real time    0.0194
    EDDIAG:  cpu time    3.6784: real time    3.6839
  RMM-DIIS:  cpu time   15.1297: real time   15.1681
    ORTHCH:  cpu time    0.6719: real time    0.6730
       DOS:  cpu time    0.0070: real time    0.0073
    CHARGE:  cpu time    1.0198: real time    1.0195
    MIXING:  cpu time    0.0050: real time    0.0047
    --------------------------------------------
      LOOP:  cpu time   20.7918: real time   20.8374

 eigenvalue-minimisations  :  8325
 total energy-change (2. order) : 0.1240991E+02  (-0.3323197E+01)
 number of electron     612.0000033 magnetization      88.0785534
 augmentation part      363.7881519 magnetization      74.3472280

 DIPCOR: dipole corrections for dipol
 direction  3 min pos   236,
 dipolmoment           0.000000      0.000000     -1.322455 electrons x Angstroem
 Tr[quadrupol]    -10439.464113

 energy correction for charged system         0.000000 eV
 dipol+quadrupol energy correction           -0.085774 eV
 added-field ion interaction          4.483118 eV  (added to PSCEN)


 Broyden mixing:
  rms(total) = 0.89457E+01    rms(broyden)= 0.89454E+01
  rms(prec ) = 0.12253E+02
  weight for this iteration     100.00

 eigenvalues of (default mixing * dielectric matrix)
  average eigenvalue GAMMA=   0.2356
  0.4068  0.0645

 Free energy of the ion-electron system (eV)
  ---------------------------------------------------
  alpha Z        PSCENC =      1251.53435899
  Ewald energy   TEWEN  =    220008.46431484
  -Hartree energ DENC   =   -280751.40653475
  -exchange      EXHF   =         0.00000000
  -V(xc)+E(xc)   XCENC  =      1593.66201484
  PAW double counting   =     65817.64454134   -69362.16333581
  entropy T*S    EENTRO =        -0.00289394
  eigenvalues    EBANDS =     -1172.55371891
  atomic energy  EATOM  =     62203.92349997
  Solvation  Ediel_sol  =         0.00000000
  ---------------------------------------------------
  free energy    TOTEN  =      -410.89775343 eV

  energy without entropy =     -410.89485949  energy(sigma->0) =     -410.89678879


--------------------------------------------------------------------------------------------------------




--------------------------------------- Iteration      1(   8)  ---------------------------------------


    POTLOK:  cpu time    0.2430: real time    0.2437
    SETDIJ:  cpu time    0.0190: real time    0.0191
    EDDIAG:  cpu time    3.7674: real time    3.7746
  RMM-DIIS:  cpu time   14.9957: real time   15.0255
    ORTHCH:  cpu time    0.6419: real time    0.6434
       DOS:  cpu time    0.0070: real time    0.0074
    CHARGE:  cpu time    0.9968: real time    0.9963
    MIXING:  cpu time    0.0050: real time    0.0047
    --------------------------------------------
      LOOP:  cpu time   20.6759: real time   20.7147

 eigenvalue-minimisations  :  8348
 total energy-change (2. order) : 0.3367856E+02  (-0.1876269E+01)
 number of electron     612.0000047 magnetization      87.4440810
 augmentation part      368.5169386 magnetization      71.0047872

 DIPCOR: dipole corrections for dipol
 direction  3 min pos   237,
 dipolmoment           0.000000      0.000000      0.014842 electrons x Angstroem
 Tr[quadrupol]    -10438.845492

 energy correction for charged system         0.000000 eV
 dipol+quadrupol energy correction           -0.000011 eV
 added-field ion interaction          0.008682 eV  (added to PSCEN)


 Broyden mixing:
  rms(total) = 0.58442E+01    rms(broyden)= 0.58440E+01
  rms(prec ) = 0.65230E+01
  weight for this iteration     100.00

 eigenvalues of (default mixing * dielectric matrix)
  average eigenvalue GAMMA=   0.2175
  0.4765  0.1122  0.0638

 Free energy of the ion-electron system (eV)
  ---------------------------------------------------
  alpha Z        PSCENC =      1247.14568672
  Ewald energy   TEWEN  =    220008.46431484
  -Hartree energ DENC   =   -280702.21228916
  -exchange      EXHF   =         0.00000000
  -V(xc)+E(xc)   XCENC  =      1591.07574339
  PAW double counting   =     65848.57651280   -69389.80468772
  entropy T*S    EENTRO =         0.08069850
  eigenvalues    EBANDS =     -1184.46867080
  atomic energy  EATOM  =     62203.92349997
  Solvation  Ediel_sol  =         0.00000000
  ---------------------------------------------------
  free energy    TOTEN  =      -377.21919146 eV

  energy without entropy =     -377.29988996  energy(sigma->0) =     -377.24609096


--------------------------------------------------------------------------------------------------------




--------------------------------------- Iteration      1(   9)  ---------------------------------------


    POTLOK:  cpu time    0.2430: real time    0.2434
    SETDIJ:  cpu time    0.0190: real time    0.0194
    EDDIAG:  cpu time    3.7724: real time    3.7849
  RMM-DIIS:  cpu time   14.8008: real time   14.9985
    ORTHCH:  cpu time    0.6559: real time    0.6859
       DOS:  cpu time    0.0080: real time    0.0074
    CHARGE:  cpu time    0.9789: real time    0.9828
    MIXING:  cpu time    0.0040: real time    0.0047
    --------------------------------------------
      LOOP:  cpu time   20.4819: real time   20.7269

 eigenvalue-minimisations  :  8355
 total energy-change (2. order) : 0.1527100E+02  (-0.1091276E+01)
 number of electron     612.0000042 magnetization      86.8043429
 augmentation part      369.0531443 magnetization      70.7620388

 DIPCOR: dipole corrections for dipol
 direction  3 min pos   237,
 dipolmoment           0.000000      0.000000     -0.095409 electrons x Angstroem
 Tr[quadrupol]    -10437.744324

 energy correction for charged system         0.000000 eV
 dipol+quadrupol energy correction           -0.000446 eV
 added-field ion interaction         -0.055811 eV  (added to PSCEN)


 Broyden mixing:
  rms(total) = 0.29848E+01    rms(broyden)= 0.29846E+01
  rms(prec ) = 0.32847E+01
  weight for this iteration     100.00

 eigenvalues of (default mixing * dielectric matrix)
  average eigenvalue GAMMA=   0.2244
  0.5452  0.0630  0.1448  0.1448

 Free energy of the ion-electron system (eV)
  ---------------------------------------------------
  alpha Z        PSCENC =      1247.08075809
  Ewald energy   TEWEN  =    220008.46431484
  -Hartree energ DENC   =   -280667.29586242
  -exchange      EXHF   =         0.00000000
  -V(xc)+E(xc)   XCENC  =      1592.64699538
  PAW double counting   =     65908.63573046   -69454.35497127
  entropy T*S    EENTRO =         0.04075670
  eigenvalues    EBANDS =     -1201.08941192
  atomic energy  EATOM  =     62203.92349997
  Solvation  Ediel_sol  =         0.00000000
  ---------------------------------------------------
  free energy    TOTEN  =      -361.94819018 eV

  energy without entropy =     -361.98894687  energy(sigma->0) =     -361.96177574


--------------------------------------------------------------------------------------------------------




--------------------------------------- Iteration      1(  10)  ---------------------------------------


    POTLOK:  cpu time    0.2440: real time    0.2441
    SETDIJ:  cpu time    0.0200: real time    0.0191
    EDDIAG:  cpu time    4.9383: real time    5.1391
  RMM-DIIS:  cpu time   14.8267: real time   15.0300
    ORTHCH:  cpu time    0.6409: real time    0.6410
       DOS:  cpu time    0.0070: real time    0.0074
    CHARGE:  cpu time    1.0148: real time    1.0417
    MIXING:  cpu time    0.0050: real time    0.0049
    --------------------------------------------
      LOOP:  cpu time   21.6967: real time   22.1275

 eigenvalue-minimisations  :  8358
 total energy-change (2. order) : 0.1404201E+01  (-0.6243858E+00)
 number of electron     612.0000046 magnetization      85.4367714
 augmentation part      367.5147006 magnetization      70.0415445

 DIPCOR: dipole corrections for dipol
 direction  3 min pos   239,
 dipolmoment           0.000000      0.000000      0.029706 electrons x Angstroem
 Tr[quadrupol]    -10438.426657

 energy correction for charged system         0.000000 eV
 dipol+quadrupol energy correction           -0.000043 eV
 added-field ion interaction          0.253541 eV  (added to PSCEN)


 Broyden mixing:
  rms(total) = 0.25305E+01    rms(broyden)= 0.25304E+01
  rms(prec ) = 0.28132E+01
  weight for this iteration     100.00

 eigenvalues of (default mixing * dielectric matrix)
  average eigenvalue GAMMA=   0.2726
  0.7508  0.2932  0.1494  0.0623  0.1074

 Free energy of the ion-electron system (eV)
  ---------------------------------------------------
  alpha Z        PSCENC =      1247.39051331
  Ewald energy   TEWEN  =    220008.46431484
  -Hartree energ DENC   =   -280711.60234883
  -exchange      EXHF   =         0.00000000
  -V(xc)+E(xc)   XCENC  =      1594.85545520
  PAW double counting   =     65980.69214781   -69532.84557026
  entropy T*S    EENTRO =        -0.00771481
  eigenvalues    EBANDS =     -1151.41428652
  atomic energy  EATOM  =     62203.92349997
  Solvation  Ediel_sol  =         0.00000000
  ---------------------------------------------------
  free energy    TOTEN  =      -360.54398930 eV

  energy without entropy =     -360.53627449  energy(sigma->0) =     -360.54141769


--------------------------------------------------------------------------------------------------------




--------------------------------------- Iteration      1(  11)  ---------------------------------------


    POTLOK:  cpu time    0.2440: real time    0.2442
    SETDIJ:  cpu time    0.0190: real time    0.0197
    EDDIAG:  cpu time    3.7714: real time    3.8185
  RMM-DIIS:  cpu time   14.9407: real time   15.0444
    ORTHCH:  cpu time    0.6479: real time    0.6497
       DOS:  cpu time    0.0080: real time    0.0077
    CHARGE:  cpu time    1.0018: real time    1.0028
    MIXING:  cpu time    0.0050: real time    0.0050
    --------------------------------------------
      LOOP:  cpu time   20.6379: real time   20.7919

 eigenvalue-minimisations  :  8351
 total energy-change (2. order) :-0.3518086E+00  (-0.4015833E+00)
 number of electron     612.0000040 magnetization      84.7672919
 augmentation part      367.3673867 magnetization      69.5513483

 DIPCOR: dipole corrections for dipol
 direction  3 min pos   240,
 dipolmoment           0.000000      0.000000     -0.094029 electrons x Angstroem
 Tr[quadrupol]    -10439.055480

 energy correction for charged system         0.000000 eV
 dipol+quadrupol energy correction           -0.000434 eV
 added-field ion interaction         -1.176289 eV  (added to PSCEN)


 Broyden mixing:
  rms(total) = 0.30534E+01    rms(broyden)= 0.30533E+01
  rms(prec ) = 0.33509E+01
  weight for this iteration     100.00

 eigenvalues of (default mixing * dielectric matrix)
  average eigenvalue GAMMA=   0.2618
  0.8105  0.2541  0.2386  0.0624  0.1027  0.1027

 Free energy of the ion-electron system (eV)
  ---------------------------------------------------
  alpha Z        PSCENC =      1245.96029276
  Ewald energy   TEWEN  =    220008.46431484
  -Hartree energ DENC   =   -280752.52793147
  -exchange      EXHF   =         0.00000000
  -V(xc)+E(xc)   XCENC  =      1597.57780222
  PAW double counting   =     66075.47631059   -69631.16846938
  entropy T*S    EENTRO =         0.02193511
  eigenvalues    EBANDS =     -1108.62355251
  atomic energy  EATOM  =     62203.92349997
  Solvation  Ediel_sol  =         0.00000000
  ---------------------------------------------------
  free energy    TOTEN  =      -360.89579788 eV

  energy without entropy =     -360.91773299  energy(sigma->0) =     -360.90310959


--------------------------------------------------------------------------------------------------------




--------------------------------------- Iteration      1(  12)  ---------------------------------------


    POTLOK:  cpu time    0.2450: real time    0.2450
    SETDIJ:  cpu time    0.0210: real time    0.0210
    EDDIAG:  cpu time    3.7794: real time    3.7901
  RMM-DIIS:  cpu time   15.1927: real time   15.2604
    ORTHCH:  cpu time    0.7159: real time    0.7164
       DOS:  cpu time    0.0070: real time    0.0075
    CHARGE:  cpu time    1.0018: real time    1.0027
    MIXING:  cpu time    0.0060: real time    0.0060
    --------------------------------------------
      LOOP:  cpu time   20.9688: real time   21.0490

 eigenvalue-minimisations  :  8354
 total energy-change (2. order) : 0.2371302E+01  (-0.2996091E+00)
 number of electron     612.0000045 magnetization      83.9798171
 augmentation part      367.3082351 magnetization      69.0792626

 DIPCOR: dipole corrections for dipol
 direction  3 min pos   237,
 dipolmoment           0.000000      0.000000      0.006142 electrons x Angstroem
 Tr[quadrupol]    -10439.155121

 energy correction for charged system         0.000000 eV
 dipol+quadrupol energy correction           -0.000002 eV
 added-field ion interaction          0.003593 eV  (added to PSCEN)


 Broyden mixing:
  rms(total) = 0.14853E+01    rms(broyden)= 0.14851E+01
  rms(prec ) = 0.16771E+01
  weight for this iteration     100.00

 eigenvalues of (default mixing * dielectric matrix)
  average eigenvalue GAMMA=   0.2833
  0.8283  0.3796  0.3796  0.0622  0.1140  0.1140  0.1052

 Free energy of the ion-electron system (eV)
  ---------------------------------------------------
  alpha Z        PSCENC =      1247.14060632
  Ewald energy   TEWEN  =    220008.46431484
  -Hartree energ DENC   =   -280760.09444476
  -exchange      EXHF   =         0.00000000
  -V(xc)+E(xc)   XCENC  =      1598.81647429
  PAW double counting   =     66117.13186055   -69674.16593789
  entropy T*S    EENTRO =         0.02757724
  eigenvalues    EBANDS =     -1099.76844638
  atomic energy  EATOM  =     62203.92349997
  Solvation  Ediel_sol  =         0.00000000
  ---------------------------------------------------
  free energy    TOTEN  =      -358.52449582 eV

  energy without entropy =     -358.55207306  energy(sigma->0) =     -358.53368823


--------------------------------------------------------------------------------------------------------




--------------------------------------- Iteration      1(  13)  ---------------------------------------


    POTLOK:  cpu time    0.2490: real time    0.2500
    SETDIJ:  cpu time    0.0210: real time    0.0206
    EDDIAG:  cpu time    3.8584: real time    3.8623
  RMM-DIIS:  cpu time   15.3247: real time   15.3877
    ORTHCH:  cpu time    0.6969: real time    0.6965
       DOS:  cpu time    0.0070: real time    0.0075
    CHARGE:  cpu time    0.9819: real time    0.9829
    MIXING:  cpu time    0.0070: real time    0.0057
    --------------------------------------------
      LOOP:  cpu time   21.1458: real time   21.2132

 eigenvalue-minimisations  :  8362
 total energy-change (2. order) :-0.9473794E-01  (-0.1921374E+00)
 number of electron     612.0000044 magnetization      82.0404886
 augmentation part      366.8833298 magnetization      67.6027578

 DIPCOR: dipole corrections for dipol
 direction  3 min pos   239,
 dipolmoment           0.000000      0.000000     -0.024996 electrons x Angstroem
 Tr[quadrupol]    -10439.149054

 energy correction for charged system         0.000000 eV
 dipol+quadrupol energy correction           -0.000031 eV
 added-field ion interaction         -0.213338 eV  (added to PSCEN)


 Broyden mixing:
  rms(total) = 0.18370E+01    rms(broyden)= 0.18369E+01
  rms(prec ) = 0.20236E+01
  weight for this iteration     100.00

 eigenvalues of (default mixing * dielectric matrix)
  average eigenvalue GAMMA=   0.3752
  1.2172  0.8160  0.4366  0.0622  0.1338  0.1338  0.1010  0.1010

 Free energy of the ion-electron system (eV)
  ---------------------------------------------------
  alpha Z        PSCENC =      1246.92364643
  Ewald energy   TEWEN  =    220008.46431484
  -Hartree energ DENC   =   -280767.84174587
  -exchange      EXHF   =         0.00000000
  -V(xc)+E(xc)   XCENC  =      1599.88070236
  PAW double counting   =     66158.41082000   -69715.57946786
  entropy T*S    EENTRO =         0.00651295
  eigenvalues    EBANDS =     -1092.80751657
  atomic energy  EATOM  =     62203.92349997
  Solvation  Ediel_sol  =         0.00000000
  ---------------------------------------------------
  free energy    TOTEN  =      -358.61923375 eV

  energy without entropy =     -358.62574671  energy(sigma->0) =     -358.62140474


--------------------------------------------------------------------------------------------------------




--------------------------------------- Iteration      1(  14)  ---------------------------------------


    POTLOK:  cpu time    0.2500: real time    0.2513
    SETDIJ:  cpu time    0.0210: real time    0.0202
    EDDIAG:  cpu time    3.8274: real time    3.8363
  RMM-DIIS:  cpu time   15.4956: real time   15.5270
    ORTHCH:  cpu time    0.6769: real time    0.6779
       DOS:  cpu time    0.0070: real time    0.0076
    CHARGE:  cpu time    1.0198: real time    1.0269
    MIXING:  cpu time    0.0070: real time    0.0060
    --------------------------------------------
      LOOP:  cpu time   21.3048: real time   21.3532

 eigenvalue-minimisations  :  8355
 total energy-change (2. order) :-0.1159351E+01  (-0.1830967E+00)
 number of electron     612.0000044 magnetization      81.0330177
 augmentation part      367.4777521 magnetization      66.9659379

 DIPCOR: dipole corrections for dipol
 direction  3 min pos   232,
 dipolmoment           0.000000      0.000000     -0.022937 electrons x Angstroem
 Tr[quadrupol]    -10439.905241

 energy correction for charged system         0.000000 eV
 dipol+quadrupol energy correction           -0.000026 eV
 added-field ion interaction          0.442442 eV  (added to PSCEN)


 Broyden mixing:
  rms(total) = 0.17230E+01    rms(broyden)= 0.17229E+01
  rms(prec ) = 0.19051E+01
  weight for this iteration     100.00

 eigenvalues of (default mixing * dielectric matrix)
  average eigenvalue GAMMA=   0.3879
  1.5119  0.8539  0.4347  0.1690  0.0622  0.1360  0.1273  0.0980  0.0980

 Free energy of the ion-electron system (eV)
  ---------------------------------------------------
  alpha Z        PSCENC =      1247.57943170
  Ewald energy   TEWEN  =    220008.46431484
  -Hartree energ DENC   =   -280794.21593715
  -exchange      EXHF   =         0.00000000
  -V(xc)+E(xc)   XCENC  =      1599.60793020
  PAW double counting   =     66240.15130292   -69794.04459525
  entropy T*S    EENTRO =        -0.01022838
  eigenvalues    EBANDS =     -1071.23430340
  atomic energy  EATOM  =     62203.92349997
  Solvation  Ediel_sol  =         0.00000000
  ---------------------------------------------------
  free energy    TOTEN  =      -359.77858456 eV

  energy without entropy =     -359.76835618  energy(sigma->0) =     -359.77517510


--------------------------------------------------------------------------------------------------------




--------------------------------------- Iteration      1(  15)  ---------------------------------------


    POTLOK:  cpu time    0.2500: real time    0.2516
    SETDIJ:  cpu time    0.0210: real time    0.0207
    EDDIAG:  cpu time    3.8344: real time    3.8385
  RMM-DIIS:  cpu time   15.4037: real time   15.4429
    ORTHCH:  cpu time    0.7109: real time    0.7108
       DOS:  cpu time    0.0070: real time    0.0076
    CHARGE:  cpu time    0.9908: real time    0.9920
    MIXING:  cpu time    0.0070: real time    0.0062
    --------------------------------------------
      LOOP:  cpu time   21.2248: real time   21.2704

 eigenvalue-minimisations  :  8353
 total energy-change (2. order) : 0.3806444E+00  (-0.1384160E+00)
 number of electron     612.0000042 magnetization      79.8918192
 augmentation part      367.4239657 magnetization      66.3013779

 DIPCOR: dipole corrections for dipol
 direction  3 min pos   228,
 dipolmoment           0.000000      0.000000     -0.040210 electrons x Angstroem
 Tr[quadrupol]    -10440.139464

 energy correction for charged system         0.000000 eV
 dipol+quadrupol energy correction           -0.000079 eV
 added-field ion interaction          1.414991 eV  (added to PSCEN)


 Broyden mixing:
  rms(total) = 0.11175E+01    rms(broyden)= 0.11174E+01
  rms(prec ) = 0.12127E+01
  weight for this iteration     100.00

 eigenvalues of (default mixing * dielectric matrix)
  average eigenvalue GAMMA=   0.4285
  1.8086  0.8995  0.5626  0.3680  0.0622  0.1363  0.1363  0.1002  0.1002  0.1105

 Free energy of the ion-electron system (eV)
  ---------------------------------------------------
  alpha Z        PSCENC =      1248.55192722
  Ewald energy   TEWEN  =    220008.46431484
  -Hartree energ DENC   =   -280802.64324464
  -exchange      EXHF   =         0.00000000
  -V(xc)+E(xc)   XCENC  =      1599.92723884
  PAW double counting   =     66280.18613403   -69833.17534387
  entropy T*S    EENTRO =         0.01715132
  eigenvalues    EBANDS =     -1064.64961785
  atomic energy  EATOM  =     62203.92349997
  Solvation  Ediel_sol  =         0.00000000
  ---------------------------------------------------
  free energy    TOTEN  =      -359.39794012 eV

  energy without entropy =     -359.41509145  energy(sigma->0) =     -359.40365723


--------------------------------------------------------------------------------------------------------




--------------------------------------- Iteration      1(  16)  ---------------------------------------


    POTLOK:  cpu time    0.2500: real time    0.2505
    SETDIJ:  cpu time    0.0210: real time    0.0206
    EDDIAG:  cpu time    3.9504: real time    3.9531
  RMM-DIIS:  cpu time   15.8236: real time   15.8803
    ORTHCH:  cpu time    0.6529: real time    0.6551
       DOS:  cpu time    0.0070: real time    0.0075
    CHARGE:  cpu time    1.0568: real time    1.0618
    MIXING:  cpu time    0.0070: real time    0.0063
    --------------------------------------------
      LOOP:  cpu time   21.7687: real time   21.8352

 eigenvalue-minimisations  :  8343
 total energy-change (2. order) :-0.1485024E+01  (-0.8819366E-01)
 number of electron     612.0000042 magnetization      78.8503824
 augmentation part      366.9505307 magnetization      65.7818142

 DIPCOR: dipole corrections for dipol
 direction  3 min pos   226,
 dipolmoment           0.000000      0.000000     -0.050002 electrons x Angstroem
 Tr[quadrupol]    -10440.490741

 energy correction for charged system         0.000000 eV
 dipol+quadrupol energy correction           -0.000123 eV
 added-field ion interaction          2.157049 eV  (added to PSCEN)


 Broyden mixing:
  rms(total) = 0.13426E+01    rms(broyden)= 0.13425E+01
  rms(prec ) = 0.14807E+01
  weight for this iteration     100.00

 eigenvalues of (default mixing * dielectric matrix)
  average eigenvalue GAMMA=   0.4438
  2.0733  0.8966  0.7416  0.3923  0.1484  0.1484  0.0622  0.1098  0.1098  0.0999
  0.0999

 Free energy of the ion-electron system (eV)
  ---------------------------------------------------
  alpha Z        PSCENC =      1249.29394171
  Ewald energy   TEWEN  =    220008.46431484
  -Hartree energ DENC   =   -280823.20949738
  -exchange      EXHF   =         0.00000000
  -V(xc)+E(xc)   XCENC  =      1599.51785235
  PAW double counting   =     66319.15763827   -69872.61254607
  entropy T*S    EENTRO =         0.00316677
  eigenvalues    EBANDS =     -1045.42133427
  atomic energy  EATOM  =     62203.92349997
  Solvation  Ediel_sol  =         0.00000000
  ---------------------------------------------------
  free energy    TOTEN  =      -360.88296381 eV

  energy without entropy =     -360.88613058  energy(sigma->0) =     -360.88401940


--------------------------------------------------------------------------------------------------------




--------------------------------------- Iteration      1(  17)  ---------------------------------------


    POTLOK:  cpu time    0.2660: real time    0.2680
    SETDIJ:  cpu time    0.0210: real time    0.0205
    EDDIAG:  cpu time    3.8704: real time    3.8924
  RMM-DIIS:  cpu time   15.3107: real time   15.4095
    ORTHCH:  cpu time    0.6649: real time    0.6700
       DOS:  cpu time    0.0070: real time    0.0075
    CHARGE:  cpu time    1.0158: real time    1.0170
    MIXING:  cpu time    0.0090: real time    0.0077
    --------------------------------------------
      LOOP:  cpu time   21.1648: real time   21.2924

 eigenvalue-minimisations  :  8340
 total energy-change (2. order) :-0.4885001E+00  (-0.6273215E-01)
 number of electron     612.0000041 magnetization      78.4004352
 augmentation part      366.9106838 magnetization      65.6629771

 DIPCOR: dipole corrections for dipol
 direction  3 min pos   238,
 dipolmoment           0.000000      0.000000     -0.109692 electrons x Angstroem
 Tr[quadrupol]    -10440.654307

 energy correction for charged system         0.000000 eV
 dipol+quadrupol energy correction           -0.000590 eV
 added-field ion interaction         -0.500189 eV  (added to PSCEN)


 Broyden mixing:
  rms(total) = 0.91109E+00    rms(broyden)= 0.91102E+00
  rms(prec ) = 0.10936E+01
  weight for this iteration     100.00

 eigenvalues of (default mixing * dielectric matrix)
  average eigenvalue GAMMA=   0.4413
  2.2106  0.8674  0.7970  0.3914  0.2612  0.1556  0.0622  0.1261  0.1261  0.1007
  0.1007  0.0969

 Free energy of the ion-electron system (eV)
  ---------------------------------------------------
  alpha Z        PSCENC =      1246.63623584
  Ewald energy   TEWEN  =    220008.46431484
  -Hartree energ DENC   =   -280837.48126865
  -exchange      EXHF   =         0.00000000
  -V(xc)+E(xc)   XCENC  =      1599.24716192
  PAW double counting   =     66343.51630028   -69896.55408510
  entropy T*S    EENTRO =         0.00517411
  eigenvalues    EBANDS =     -1029.12879713
  atomic energy  EATOM  =     62203.92349997
  Solvation  Ediel_sol  =         0.00000000
  ---------------------------------------------------
  free energy    TOTEN  =      -361.37146392 eV

  energy without entropy =     -361.37663802  energy(sigma->0) =     -361.37318862


--------------------------------------------------------------------------------------------------------




--------------------------------------- Iteration      1(  18)  ---------------------------------------


    POTLOK:  cpu time    0.2610: real time    0.2692
    SETDIJ:  cpu time    0.0210: real time    0.0205
    EDDIAG:  cpu time    3.8844: real time    3.9019
  RMM-DIIS:  cpu time   15.2177: real time   15.2512
    ORTHCH:  cpu time    0.6599: real time    0.6613
       DOS:  cpu time    0.0080: real time    0.0075
    CHARGE:  cpu time    1.0408: real time    1.0411
    MIXING:  cpu time    0.0070: real time    0.0068
    --------------------------------------------
      LOOP:  cpu time   21.0998: real time   21.1595

 eigenvalue-minimisations  :  8349
 total energy-change (2. order) :-0.5086583E+00  (-0.3121796E-01)
 number of electron     612.0000042 magnetization      77.6710925
 augmentation part      366.8321589 magnetization      65.2262682

 DIPCOR: dipole corrections for dipol
 direction  3 min pos   244,
 dipolmoment           0.000000      0.000000     -0.123337 electrons x Angstroem
 Tr[quadrupol]    -10440.586589

 energy correction for charged system         0.000000 eV
 dipol+quadrupol energy correction           -0.000746 eV
 added-field ion interaction         -3.503972 eV  (added to PSCEN)


 Broyden mixing:
  rms(total) = 0.89563E+00    rms(broyden)= 0.89560E+00
  rms(prec ) = 0.10677E+01
  weight for this iteration     100.00

 eigenvalues of (default mixing * dielectric matrix)
  average eigenvalue GAMMA=   0.4656
  2.3641  0.8831  0.8831  0.6294  0.4075  0.1602  0.0622  0.1315  0.1315  0.1006
  0.1006  0.1026  0.0964

 Free energy of the ion-electron system (eV)
  ---------------------------------------------------
  alpha Z        PSCENC =      1243.63229762
  Ewald energy   TEWEN  =    220008.46431484
  -Hartree energ DENC   =   -280838.96339315
  -exchange      EXHF   =         0.00000000
  -V(xc)+E(xc)   XCENC  =      1599.04140738
  PAW double counting   =     66346.58302409   -69899.25844195
  entropy T*S    EENTRO =         0.00428333
  eigenvalues    EBANDS =     -1025.30711432
  atomic energy  EATOM  =     62203.92349997
  Solvation  Ediel_sol  =         0.00000000
  ---------------------------------------------------
  free energy    TOTEN  =      -361.88012219 eV

  energy without entropy =     -361.88440552  energy(sigma->0) =     -361.88154997


[...]
   -.129E+02 -.632E+02 -.976E+03   0.128E+02 0.630E+02 0.976E+03   0.109E+00 0.129E+00 0.240E+00   0.604E-02 0.122E-01 -.272E-01
   -.234E+02 0.284E+02 0.290E+04   0.233E+02 -.284E+02 -.290E+04   -.442E-01 -.262E-01 -.142E+01   0.351E-02 -.185E-01 -.408E-03
   -.395E+02 0.782E+01 -.286E+04   0.396E+02 -.782E+01 0.286E+04   -.144E+00 0.172E-01 0.117E+01   -.445E-02 -.197E-01 -.139E-01
   -.166E+02 -.217E+02 0.907E+03   0.167E+02 0.217E+02 -.907E+03   -.850E-01 -.157E-02 -.341E+00   -.517E-02 -.165E-01 -.200E-01
   -.528E+02 -.591E+02 -.993E+03   0.529E+02 0.591E+02 0.992E+03   -.692E-01 0.162E-02 0.394E+00   -.163E-02 -.646E-02 -.216E-01
   0.313E+02 0.371E+02 0.289E+04   -.312E+02 -.371E+02 -.289E+04   0.130E-02 -.180E-01 -.142E+01   0.115E-01 -.756E-03 0.641E-02
   0.540E+02 0.278E+02 -.285E+04   -.541E+02 -.277E+02 0.285E+04   0.720E-01 -.599E-01 0.124E+01   0.274E-02 -.145E-01 -.211E-01
   0.362E+02 0.117E+02 0.862E+03   -.364E+02 -.118E+02 -.861E+03   0.147E+00 0.583E-01 -.631E+00   0.668E-02 0.766E-02 0.919E-02
   -.120E+00 0.252E+02 0.293E+04   0.131E+00 -.252E+02 -.293E+04   -.154E-01 -.385E-01 -.128E+01   -.410E-02 -.562E-02 -.588E-02
   -.857E+01 0.283E+02 -.291E+04   0.855E+01 -.282E+02 0.291E+04   0.284E-01 -.103E+00 0.143E+01   -.136E-01 -.587E-02 -.273E-02
   -.445E+02 0.385E+02 0.293E+04   0.446E+02 -.386E+02 -.293E+04   0.161E-01 0.114E+00 -.129E+01   -.523E-02 -.177E-01 -.144E-01
   -.194E+02 0.552E+02 -.290E+04   0.194E+02 -.553E+02 0.290E+04   -.394E-01 0.156E+00 0.106E+01   0.224E-02 -.109E-01 -.306E-02
   -.194E+02 0.779E+02 0.941E+03   0.194E+02 -.777E+02 -.941E+03   0.453E-01 -.204E+00 -.106E+00   -.697E-02 -.313E-01 -.184E-01
   0.163E+01 0.701E+02 0.291E+04   -.168E+01 -.702E+02 -.290E+04   0.393E-01 0.172E+00 -.116E+01   0.889E-02 -.322E-02 -.229E-02
   0.793E+01 0.951E+02 -.293E+04   -.797E+01 -.953E+02 0.292E+04   0.285E-01 0.204E+00 0.983E+00   0.494E-02 -.725E-02 -.256E-02
   -.416E+02 0.708E+02 0.975E+03   0.416E+02 -.708E+02 -.975E+03   0.246E-01 -.762E-01 -.178E+00   0.663E-02 -.235E-01 -.136E-01
   0.419E+02 0.468E+02 0.292E+04   -.419E+02 -.468E+02 -.292E+04   -.515E-01 0.406E-01 -.128E+01   0.229E-03 0.847E-02 0.522E-02
   0.194E+02 0.749E+02 -.290E+04   -.194E+02 -.750E+02 0.290E+04   -.326E-03 0.779E-01 0.963E+00   0.612E-02 -.147E-02 -.105E-01
   0.388E+02 0.910E+02 0.966E+03   -.389E+02 -.910E+02 -.966E+03   -.321E-01 -.105E+00 -.238E+00   0.106E-01 -.651E-02 -.935E-02
   -.261E+02 0.109E+03 -.101E+04   0.262E+02 -.109E+03 0.101E+04   -.105E+00 0.160E+00 0.199E+00   0.866E-02 -.209E-01 -.213E-01
   0.227E+02 0.950E+02 0.936E+03   -.227E+02 -.949E+02 -.936E+03   -.193E-01 -.196E+00 -.134E+00   -.103E-01 -.121E-01 -.936E-02
   0.523E+01 0.117E+03 -.937E+03   -.520E+01 -.118E+03 0.937E+03   -.837E-02 0.214E+00 0.319E+00   -.137E-01 -.265E-01 -.244E-01
   -.211E+02 -.366E+02 0.934E+03   0.212E+02 0.367E+02 -.934E+03   0.196E-01 -.242E-02 -.103E+00   -.273E-01 0.760E-02 -.180E-01
   -.333E+02 -.278E+02 0.928E+03   0.333E+02 0.278E+02 -.929E+03   0.663E-02 0.119E-01 -.129E+00   0.423E-02 0.510E-02 -.149E-01
   -.282E+02 -.203E+02 -.966E+03   0.281E+02 0.203E+02 0.965E+03   0.106E+00 -.112E-01 0.348E+00   -.133E-01 -.268E-02 -.153E-01
   0.796E+01 0.190E+02 -.959E+03   -.786E+01 -.191E+02 0.959E+03   -.115E+00 0.335E-01 0.273E+00   0.129E-01 0.510E-03 -.184E-01
   0.377E+02 0.101E+02 0.948E+03   -.377E+02 -.101E+02 -.948E+03   -.143E-01 0.112E-01 -.257E+00   -.260E-02 0.129E-01 -.163E-01
   0.242E+02 0.569E+02 -.958E+03   -.242E+02 -.568E+02 0.958E+03   0.294E-01 -.131E+00 0.251E+00   0.108E-01 0.624E-02 -.331E-01
   -.319E+01 0.254E+02 -.974E+03   0.323E+01 -.254E+02 0.974E+03   -.263E-01 0.161E-01 0.325E+00   -.110E-01 0.128E-02 -.219E-01
   -.700E+02 -.789E+02 -.784E+03   0.702E+02 0.791E+02 0.784E+03   -.171E+00 -.260E+00 0.301E+00   -.116E-01 0.232E-01 -.132E-01
   0.384E+02 -.927E+02 -.783E+03   -.385E+02 0.930E+02 0.782E+03   0.973E-01 -.323E+00 0.316E+00   0.365E-02 0.290E-01 -.109E-01
   -.605E+02 0.153E+02 0.231E+04   0.607E+02 -.152E+02 -.231E+04   -.292E+00 -.698E-02 -.278E+01   -.107E-01 -.105E-01 -.158E-03
   -.362E+02 0.898E+00 -.232E+04   0.362E+02 -.879E+00 0.231E+04   0.200E-01 -.339E-02 0.253E+01   -.298E-02 -.140E-01 -.696E-02
   0.594E+02 0.303E+02 0.230E+04   -.595E+02 -.303E+02 -.230E+04   0.257E+00 -.614E-01 -.275E+01   -.124E-02 0.374E-02 0.411E-02
   0.287E+02 0.326E+02 -.233E+04   -.287E+02 -.324E+02 0.233E+04   -.498E-01 -.852E-01 0.326E+01   0.511E-02 -.767E-02 -.142E-01
   -.322E+02 -.761E+01 0.756E+03   0.323E+02 0.776E+01 -.756E+03   -.454E-01 -.241E+00 -.421E-01   -.195E-02 -.248E-02 -.281E-02
   -.241E+02 -.206E+02 -.810E+03   0.246E+02 0.205E+02 0.810E+03   -.479E+00 0.756E-01 0.299E+00   0.103E-01 0.128E-02 -.205E-01
   0.115E+02 0.264E+02 0.713E+03   -.116E+02 -.267E+02 -.712E+03   0.501E-01 0.172E+00 -.502E+00   0.880E-03 -.626E-02 -.734E-02
   0.455E+02 -.266E+02 -.796E+03   -.455E+02 0.264E+02 0.796E+03   0.918E-01 0.145E+00 0.453E+00   -.210E-02 0.408E-02 -.170E-01
   0.276E+02 -.651E+02 -.798E+03   -.279E+02 0.651E+02 0.797E+03   0.305E+00 0.133E-01 0.276E+00   -.632E-02 -.617E-02 -.170E-01
   -.158E+02 0.695E+02 -.776E+03   0.160E+02 -.696E+02 0.776E+03   -.236E+00 0.102E+00 0.179E+00   0.650E-03 -.199E-01 -.177E-01
   0.295E+02 0.118E+03 -.785E+03   -.298E+02 -.119E+03 0.785E+03   0.308E+00 0.359E+00 0.158E+00   0.318E-02 -.219E-01 -.227E-01
   0.134E+02 0.432E+01 0.763E+03   -.134E+02 -.438E+01 -.763E+03   -.365E-01 0.818E-01 -.339E+00   0.206E-01 0.861E-02 -.118E-01
 -----------------------------------------------------------------------------------------------
   0.197E+00 0.304E+00 0.335E+00   0.199E-12 0.711E-12 -.125E-11   -.190E+00 -.315E+00 0.365E+00   -.547E-02 0.131E-01 -.687E+00
 
 
 POSITION                                       TOTAL-FORCE (eV/Angst)
 -----------------------------------------------------------------------------------
      0.00265      0.00460      2.03273        -0.003437     -0.004463      0.267188
      0.00157      0.00235      8.09986        -0.004168      0.010428      0.010390
      2.50538      0.00249      2.01455         0.018100     -0.041619      0.306803
      2.48645      0.01386      8.09048         0.018159      0.004978      0.019611
     -0.00053      8.67545      2.02992         0.022468     -0.088026      0.215460
      5.01822     -0.01256      8.11488        -0.004039      0.008349     -0.003925
      2.50374      8.67643      2.03165        -0.011896     -0.102166      0.226964
      7.51469     -0.00619      8.09901         0.006290      0.004712      0.003475
      8.76727      2.15790      2.02946        -0.009332      0.051295      0.218963
     -1.25529      2.14223      8.14144         0.007119      0.015552     -0.001564
      1.25353      2.17274      2.02187         0.019336      0.100790      0.276859
      1.26030      2.19334      8.13140         0.003886     -0.009004     -0.003662
     -0.00285      1.44433      4.07597         0.002521      0.099596     -0.246924
      3.77193      2.16142      2.03135        -0.031168      0.086307      0.248266
      3.76517      2.14442      8.14771        -0.002935      0.006004      0.013481
      2.50178      1.44890      4.07736         0.030961      0.060313     -0.045999
      6.27168      2.17140      2.04886         0.034945      0.011020      0.126357
      6.26489      2.17746      8.16811         0.009374     -0.018651     -0.013676
      5.00042      1.45188      4.09772         0.048159      0.082435     -0.189468
      7.52680      1.44774      4.09237        -0.103129      0.115195     -0.197129
      6.25572      0.73211      6.10963         0.008268     -0.009663     -0.016021
      8.77465      0.71958      6.09810        -0.007387     -0.002364     -0.006666
     -2.49068      4.34584      2.00000        -0.088823     -0.032309      0.340881
     -2.49825      4.33928      8.09903        -0.000076      0.002528      0.009243
     -1.27467      3.61315      4.08172         0.041715     -0.008246     -0.148996
     -0.01229      2.91771      6.11673         0.017542     -0.010625      0.005217
      5.02108      4.35795      2.00460         0.082567     -0.051892      0.258135
      5.01475      4.34826      8.11186        -0.008600     -0.009221      0.010644
      3.76492      3.61380      4.08141        -0.035122     -0.034493     -0.133552
     -3.75488      6.52259      2.00624        -0.008483     -0.072607      0.156118
     -3.75911      6.52224      8.07598        -0.005162     -0.000299      0.008719
     -1.25738      6.50265      2.00219         0.073847      0.086459      0.278418
     -1.26088      6.51627      8.08407        -0.002712     -0.023254      0.021428
     -2.50964      5.80144      4.05734        -0.004226     -0.059097     -0.282916
      1.25473      6.50540      2.00535        -0.007519      0.052869      0.108314
      1.25337      6.49608      8.11003        -0.004666     -0.007426     -0.010070
     -0.00666      5.79426      4.04866         0.089536     -0.048498     -0.146574
      3.76821      6.52071      2.02214        -0.035900      0.118328      0.284225
      3.75885      6.51165      8.09198         0.010259     -0.026792      0.016345
      2.50308      5.78909      4.05124        -0.074759     -0.082770     -0.153387
      1.26266      5.05597      6.10978        -0.005245     -0.001720     -0.007176
      5.01445      5.79798      4.06119        -0.007661     -0.085005     -0.262060
      6.26716      5.05754      6.07433         0.006089     -0.004468      0.025961
     -3.76517      7.96148      4.06558         0.031033      0.072397     -0.232939
     -1.24654      7.96318      4.06972         0.003179      0.014081     -0.215819
     -2.51744      7.25359      6.07405        -0.000984      0.004143      0.012803
      0.00877      7.22411      6.10352        -0.001062     -0.005793      0.002841
      3.74757      7.96401      4.08996        -0.011800     -0.007578     -0.264526
      2.50329      7.23268      6.10133        -0.002855     -0.009371      0.006941
      5.01359      7.23209      6.08444         0.007433     -0.003429     -0.001064
      1.20551      0.72470      6.10158         0.000786     -0.017430     -0.001342
      3.79040      0.67545      6.10811         0.008493      0.000572      0.006062
     -0.01227      4.33343      2.01581        -0.119680      0.038418      0.065913
     -0.03491      4.33220      8.12951         0.003611      0.001177     -0.015419
      2.55867      4.36425      2.03158         0.078289     -0.081336     -0.051406
      2.55315      4.35921      8.22025         0.000694      0.007815      0.000855
      1.23098      3.62224      4.07808         0.002969     -0.092977     -0.184267
      2.51691      2.89372      6.14991        -0.015755      0.000621      0.017671
      6.26024      3.63306      4.05078        -0.010279     -0.054688     -0.425432
      5.02978      2.87905      6.18107        -0.003042      0.008190      0.006521
      7.53539      2.83941      6.17602        -0.007944      0.004925      0.001292
     -1.25803      5.11431      6.06974        -0.003536     -0.006745      0.003042
      3.75397      5.10986      6.08540        -0.002585      0.012288      0.003869
      1.25181      7.95850      4.07933        -0.041660      0.032234     -0.323298
 -----------------------------------------------------------------------------------
    total drift:                                0.001746      0.001259      0.012885


--------------------------------------------------------------------------------------------------------



  FREE ENERGIE OF THE ION-ELECTRON SYSTEM (eV)
  ---------------------------------------------------
  free  energy   TOTEN  =      -370.12846077 eV

  energy  without entropy=     -370.10659556  energy(sigma->0) =     -370.12117236
 
 d Force = 0.4516765E-02[ 0.166E-02, 0.738E-02]  d Energy = 0.4168083E-02 0.349E-03
 d Force = 0.1700323E+03[ 0.170E+03, 0.170E+03]  d Ewald  = 0.1700323E+03-0.592E-04


--------------------------------------------------------------------------------------------------------


    POTLOK:  cpu time    0.2700: real time    0.2708


--------------------------------------------------------------------------------------------------------


 Conjugate gradient step on ions:
 trial-energy change:   -0.004168  1 .order   -0.004517   -0.007375   -0.001658
  (g-gl).g = 0.307E-02      g.g   = 0.370E-02  gl.gl    = 0.176E-01
 g(Force)  = 0.370E-02   g(Stress)= 0.000E+00 ortho     =-0.173E-03
 gamma     =   0.17512
 trial     =   2.00902
 opt step  =   2.59182  (harmonic =   2.59182) maximal distance =0.00932256
 next E    =  -370.129050   (d E  =  -0.00476)


--------------------------------------------------------------------------------------------------------


  
 reached required accuracy - stopping structural energy minimisation
     LOOP+:  cpu time  314.0233: real time  315.5017
    4ORBIT:  cpu time    0.0000: real time    0.0000
 


 total charge     
 
# of ion       s       p       d       tot
------------------------------------------
    1        0.480   0.365   8.307   9.152
    2        0.493   0.380   8.321   9.194
    3        0.479   0.360   8.308   9.146
    4        0.496   0.387   8.314   9.197
    5        0.484   0.366   8.310   9.160
    6        0.489   0.378   8.319   9.186
    7        0.485   0.367   8.310   9.162
    8        0.484   0.374   8.314   9.172
    9        0.483   0.370   8.314   9.167
   10        0.495   0.387   8.322   9.204
   11        0.493   0.381   8.300   9.173
   12        0.503   0.398   8.313   9.213
   13        0.494   0.492   8.323   9.308
   14        0.482   0.368   8.310   9.160
   15        0.503   0.396   8.317   9.216
   16        0.496   0.492   8.321   9.309
   17        0.485   0.370   8.309   9.164
   18        0.495   0.381   8.321   9.197
   19        0.499   0.501   8.323   9.322
   20        0.497   0.498   8.316   9.311
   21        0.509   0.514   8.337   9.360
   22        0.504   0.509   8.327   9.340
   23        0.488   0.373   8.311   9.172
   24        0.501   0.394   8.314   9.209
   25        0.503   0.504   8.323   9.330
   26        0.512   0.524   8.328   9.363
   27        0.489   0.373   8.315   9.178
   28        0.501   0.394   8.318   9.213
   29        0.504   0.505   8.325   9.334
   30        0.480   0.363   8.309   9.152
   31        0.483   0.376   8.311   9.170
   32        0.484   0.369   8.312   9.165
   33        0.495   0.388   8.320   9.204
   34        0.495   0.496   8.315   9.307
   35        0.491   0.381   8.312   9.184
   36        0.494   0.389   8.308   9.191
   37        0.500   0.503   8.330   9.334
   38        0.486   0.376   8.311   9.173
   39        0.500   0.392   8.322   9.215
   40        0.501   0.505   8.330   9.335
   41        0.509   0.517   8.324   9.350
   42        0.495   0.495   8.316   9.305
   43        0.507   0.509   8.332   9.348
   44        0.490   0.486   8.319   9.295
   45        0.493   0.488   8.328   9.310
   46        0.506   0.510   8.332   9.348
   47        0.506   0.510   8.338   9.354
   48        0.490   0.486   8.321   9.297
   49        0.501   0.504   8.330   9.335
   50        0.503   0.506   8.331   9.341
   51        0.477   0.511   6.163   7.151
   52        0.479   0.516   6.179   7.174
   53        0.466   0.395   6.115   6.976
   54        0.466   0.399   6.125   6.990
   55        0.468   0.398   6.115   6.981
   56        0.463   0.387   6.122   6.972
   57        0.469   0.498   6.178   7.145
   58        0.475   0.509   6.207   7.191
   59        0.467   0.497   6.144   7.108
   60        0.480   0.517   6.206   7.202
   61        0.477   0.515   6.179   7.171
   62        0.476   0.512   6.165   7.152
   63        0.477   0.513   6.170   7.160
   64        0.466   0.498   6.136   7.100
--------------------------------------------------
tot         31.343  28.314 502.144 561.800
 


 magnetization (x)
 
# of ion       s       p       d       tot
------------------------------------------
    1       -0.007  -0.021   0.668   0.641
    2       -0.011  -0.022   0.674   0.641
    3       -0.008  -0.021   0.662   0.634
    4       -0.013  -0.026   0.725   0.686
    5       -0.012  -0.024   0.673   0.638
    6       -0.010  -0.022   0.685   0.653
    7       -0.012  -0.023   0.671   0.636
    8       -0.006  -0.021   0.676   0.649
    9       -0.011  -0.025   0.650   0.614
   10       -0.014  -0.029   0.677   0.634
   11       -0.020  -0.035   0.730   0.675
   12       -0.019  -0.035   0.737   0.683
   13       -0.010  -0.031   0.697   0.656
   14       -0.011  -0.027   0.665   0.627
   15       -0.018  -0.031   0.731   0.681
   16       -0.016  -0.037   0.704   0.651
   17       -0.011  -0.026   0.675   0.638
   18       -0.016  -0.027   0.695   0.653
   19       -0.015  -0.039   0.713   0.659
   20       -0.013  -0.036   0.730   0.681
   21       -0.017  -0.034   0.696   0.646
   22       -0.011  -0.031   0.710   0.668
   23       -0.011  -0.026   0.697   0.660
   24       -0.017  -0.031   0.734   0.685
   25       -0.019  -0.043   0.737   0.675
   26       -0.021  -0.048   0.750   0.681
   27       -0.014  -0.026   0.682   0.643
   28       -0.016  -0.029   0.719   0.674
   29       -0.022  -0.046   0.720   0.653
   30       -0.011  -0.023   0.644   0.611
   31       -0.006  -0.024   0.682   0.652
   32       -0.010  -0.025   0.654   0.619
   33       -0.015  -0.029   0.679   0.635
   34       -0.011  -0.033   0.732   0.689
   35       -0.018  -0.034   0.689   0.638
   36       -0.014  -0.031   0.710   0.664
   37       -0.017  -0.043   0.695   0.635
   38       -0.009  -0.026   0.673   0.639
   39       -0.016  -0.028   0.669   0.625
   40       -0.016  -0.043   0.699   0.641
   41       -0.022  -0.049   0.746   0.675
   42       -0.011  -0.033   0.728   0.684
   43       -0.019  -0.037   0.713   0.657
   44       -0.009  -0.029   0.692   0.654
   45       -0.011  -0.029   0.668   0.629
   46       -0.014  -0.031   0.708   0.663
   47       -0.014  -0.032   0.679   0.633
   48       -0.008  -0.027   0.680   0.645
   49       -0.012  -0.032   0.689   0.646
   50       -0.011  -0.028   0.692   0.653
   51        0.006  -0.010   2.801   2.797
   52        0.004  -0.015   2.757   2.745
   53        0.013  -0.011   2.894   2.895
   54        0.013  -0.012   2.881   2.882
   55        0.012  -0.011   2.892   2.893
   56        0.012  -0.012   2.893   2.893
   57        0.003  -0.019   2.745   2.730
   58       -0.004  -0.029   2.669   2.636
   59        0.007  -0.012   2.835   2.829
   60       -0.002  -0.023   2.679   2.654
   61        0.004  -0.016   2.763   2.751
   62        0.006  -0.013   2.801   2.795
   63        0.004  -0.016   2.785   2.772
   64        0.011  -0.010   2.848   2.849
--------------------------------------------------
tot         -0.584  -1.746  74.051  71.721
 

 total amount of memory used by VASP MPI-rank0   113068. kBytes
=======================================================================

   base      :      30000. kBytes
   nonlr-proj:      13088. kBytes
   fftplans  :       6402. kBytes
   grid      :      16455. kBytes
   one-center:         93. kBytes
   wavefun   :      47030. kBytes
 
  
  
 General timing and accounting informations for this job:
 ========================================================
  
                  Total CPU time used (sec):     6639.879
                            User time (sec):     6568.478
                          System time (sec):       71.401
                         Elapsed time (sec):     6705.965
  
                   Maximum memory used (kb):      164520.
                   Average memory used (kb):           0.
  
                          Minor page faults:      1627433
                          Major page faults:            0
                 Voluntary context switches:         8725
