SQS-NiFe                                
           1
    10.026770    0.000000    0.000000
    -5.013385    8.683438    0.000000
     0.000000    0.000000   21.188983
   Ni   Fe
  50  14
Direct configuration=     1
   0.00052900  0.00053000  0.09593319
   0.00332074  0.00280765  0.37790871
   0.25001300  0.00028700  0.09507516
   0.25203988  0.00249005  0.37862552
   0.49948700  0.99908000  0.09580077
   0.49944922  0.00109347  0.37740108
   0.74930200  0.99919300  0.09588248
   0.74936494  0.99975009  0.37835861
   0.99864000  0.24850700  0.09577903
   0.00328827  0.25575195  0.37944237
   0.25012600  0.25021600  0.09542058
   0.25391948  0.25430439  0.37785118
   0.08288200  0.16633200  0.19236263
   0.50064200  0.24891300  0.09586799
   0.50152223  0.25376012  0.38002226
   0.33293900  0.16685800  0.19242841
   0.75052500  0.25006200  0.09669473
   0.75099138  0.25066633  0.37725429
   0.58230700  0.16720100  0.19338931
   0.83403200  0.16672400  0.19313692
   0.66550398  0.08482096  0.28441122
   0.91760657  0.08653936  0.28653206
   0.00183400  0.50047500  0.09438867
   0.00064260  0.49928278  0.37926253
   0.08092200  0.41609700  0.19263386
   0.16616001  0.33016301  0.28448849
   0.75170200  0.50186900  0.09460572
   0.74686146  0.49892717  0.37865129
   0.58357300  0.41617200  0.19261966
   0.00109100  0.75115300  0.09468309
   0.99996716  0.75029207  0.37888330
   0.24902600  0.74885700  0.09449183
   0.24979317  0.74594183  0.37926463
   0.08375800  0.66810400  0.19148344
   0.49972500  0.74917300  0.09464107
   0.49655952  0.74358306  0.37894046
   0.33297400  0.66727700  0.19107398
   0.75128300  0.75093600  0.09543333
   0.74564449  0.74519568  0.37812609
   0.58298100  0.66668200  0.19119569
   0.41507176  0.58054287  0.28365073
   0.83395900  0.66770600  0.19166513
   0.91547474  0.58218082  0.28468460
   0.08291700  0.91685800  0.19187232
   0.33420600  0.91705400  0.19206792
   0.16809036  0.83414192  0.28566142
   0.41564716  0.83291299  0.28465101
   0.83233100  0.91715000  0.19302274
   0.66518585  0.83257507  0.28487322
   0.91680816  0.83355707  0.28556662
   0.17390575  0.08464430  0.28541788
   0.41674969  0.09316237  0.28647971
   0.24829900  0.49904600  0.09513485
   0.25106303  0.50264837  0.37304509
   0.50648100  0.50259500  0.09587930
   0.49888155  0.49873133  0.37247979
   0.33134100  0.41714300  0.19246231
   0.41906449  0.33212349  0.28476363
   0.83354800  0.41839000  0.19117395
   0.66491822  0.33590070  0.28367941
   0.91712497  0.34098595  0.28401169
   0.16225743  0.57522376  0.28738588
   0.66158109  0.57477518  0.28643264
   0.58310400  0.91651500  0.19252114
Direct configuration=     2
   0.00052900  0.00053000  0.09593319
   0.00255924  0.00241195  0.37833913
   0.25001300  0.00028700  0.09507516
   0.25146270  0.00186670  0.37942144
   0.49948700  0.99908000  0.09580077
   0.49953032  0.00037659  0.37786111
   0.74930200  0.99919300  0.09588248
   0.74937947  0.99961893  0.37851484
   0.99864000  0.24850700  0.09577903
   0.00202829  0.25391592  0.37941081
   0.25012600  0.25021600  0.09542058
   0.25262251  0.25287741  0.37856144
   0.08288200  0.16633200  0.19236263
   0.50064200  0.24891300  0.09586799
   0.50147932  0.25228431  0.38047125
   0.33293900  0.16685800  0.19242841
   0.75052500  0.25006200  0.09669473
   0.75099945  0.25131833  0.37778917
   0.58230700  0.16720100  0.19338931
   0.83403200  0.16672400  0.19313692
   0.66556671  0.08475271  0.28498834
   0.91767819  0.08603305  0.28642781
   0.00183400  0.50047500  0.09438867
  -0.00017532  0.49955921  0.37982553
   0.08092200  0.41609700  0.19263386
   0.16582358  0.33045518  0.28482451
   0.75170200  0.50186900  0.09460572
   0.74836358  0.49905434  0.37913874
   0.58357300  0.41617200  0.19261966
   0.00109100  0.75115300  0.09468309
   0.00008671  0.75059336  0.37902635
   0.24902600  0.74885700  0.09449183
   0.24977481  0.74758438  0.37941278
   0.08375800  0.66810400  0.19148344
   0.49972500  0.74917300  0.09464107
   0.49780629  0.74597789  0.37891970
   0.33297400  0.66727700  0.19107398
   0.75128300  0.75093600  0.09543333
   0.74722338  0.74682389  0.37843069
   0.58298100  0.66668200  0.19119569
   0.41576325  0.58247385  0.28309814
   0.83395900  0.66770600  0.19166513
   0.91653824  0.58451585  0.28512679
   0.08291700  0.91685800  0.19187232
   0.33420600  0.91705400  0.19206792
   0.16790681  0.83356549  0.28575273
   0.41540962  0.83282521  0.28544648
   0.83233100  0.91715000  0.19302274
   0.66547024  0.83229573  0.28558557
   0.91625137  0.83321599  0.28578608
   0.16738456  0.08268624  0.28575909
   0.41835402  0.08666961  0.28657790
   0.24829900  0.49904600  0.09513485
   0.24934725  0.50070488  0.37616824
   0.50648100  0.50259500  0.09587930
   0.50015206  0.49938847  0.37618491
   0.33134100  0.41714300  0.19246231
   0.41588242  0.33202656  0.28494125
   0.83354800  0.41839000  0.19117395
   0.66674582  0.33344475  0.28626491
   0.91490594  0.33452012  0.28610145
   0.16528303  0.58219996  0.28560901
   0.66718426  0.58323386  0.28497255
   0.58310400  0.91651500  0.19252114
Direct configuration=     3
   0.00052900  0.00053000  0.09593319
   0.00189059  0.00206451  0.37871707
   0.25001300  0.00028700  0.09507516
   0.25095590  0.00131937  0.38012031
   0.49948700  0.99908000  0.09580077
   0.49960153 -0.00025287  0.37826504
   0.74930200  0.99919300  0.09588248
   0.74939223  0.99950377  0.37865202
   0.99864000  0.24850700  0.09577903
   0.00092195  0.25230378  0.37938310
   0.25012600  0.25021600  0.09542058
   0.25148370  0.25162443  0.37918510
   0.08288200  0.16633200  0.19236263
   0.50064200  0.24891300  0.09586799
   0.50144164  0.25098846  0.38086549
   0.33293900  0.16685800  0.19242841
   0.75052500  0.25006200  0.09669473
   0.75100654  0.25189082  0.37825882
   0.58230700  0.16720100  0.19338931
   0.83403200  0.16672400  0.19313692
   0.66562178  0.08469279  0.28549509
   0.91774108  0.08558848  0.28633628
   0.00183400  0.50047500  0.09438867
  -0.00089351  0.49980193  0.38031988
   0.08092200  0.41609700  0.19263386
   0.16552818  0.33071174  0.28511955
   0.75170200  0.50186900  0.09460572
   0.74968252  0.49916600  0.37956675
   0.58357300  0.41617200  0.19261966
   0.00109100  0.75115300  0.09468309
   0.00019168  0.75085791  0.37915195
   0.24902600  0.74885700  0.09449183
   0.24975868  0.74902663  0.37954286
   0.08375800  0.66810400  0.19148344
   0.49972500  0.74917300  0.09464107
   0.49890103  0.74808069  0.37890146
   0.33297400  0.66727700  0.19107398
   0.75128300  0.75093600  0.09543333
   0.74860975  0.74825356  0.37869815
   0.58298100  0.66668200  0.19119569
   0.41637042  0.58416936  0.28261293
   0.83395900  0.66770600  0.19166513
   0.91747206  0.58656614  0.28551505
   0.08291700  0.91685800  0.19187232
   0.33420600  0.91705400  0.19206792
   0.16774564  0.83305934  0.28583290
   0.41520104  0.83274814  0.28614494
   0.83233100  0.91715000  0.19302274
   0.66571995  0.83205045  0.28621106
   0.91576249  0.83291650  0.28597879
   0.16165857  0.08096695  0.28605869
   0.41976273  0.08096859  0.28666413
   0.24829900  0.49904600  0.09513485
   0.24784070  0.49899838  0.37891055
   0.50648100  0.50259500  0.09587930
   0.50126763  0.49996549  0.37943823
   0.33134100  0.41714300  0.19246231
   0.41308838  0.33194146  0.28509721
   0.83354800  0.41839000  0.19117395
   0.66835056  0.33128829  0.28853514
   0.91295751  0.32884273  0.28793639
   0.16793969  0.58832548  0.28404881
   0.67210417  0.59066109  0.28369051
   0.58310400  0.91651500  0.19252114
Direct configuration=     4
   0.00052900  0.00053000  0.09593319
   0.00107049  0.00150978  0.37953384
   0.25001300  0.00028700  0.09507516
   0.25049433  0.00141309  0.38028580
   0.49948700  0.99908000  0.09580077
   0.49994799 -0.00064793  0.37943472
   0.74930200  0.99919300  0.09588248
   0.74959389  0.99967893  0.37906517
   0.99864000  0.24850700  0.09577903
   0.00002110  0.25059422  0.38018166
   0.25012600  0.25021600  0.09542058
   0.25132197  0.25110406  0.37991999
   0.08288200  0.16633200  0.19236263
   0.50064200  0.24891300  0.09586799
   0.50028347  0.24959639  0.38110736
   0.33293900  0.16685800  0.19242841
   0.75052500  0.25006200  0.09669473
   0.75072626  0.25127137  0.38033845
   0.58230700  0.16720100  0.19338931
   0.83403200  0.16672400  0.19313692
   0.66602582  0.08366537  0.28576495
   0.91680345  0.08404586  0.28618699
   0.00183400  0.50047500  0.09438867
  -0.00007053  0.50030209  0.38023748
   0.08092200  0.41609700  0.19263386
   0.16591432  0.33338120  0.28589470
   0.75170200  0.50186900  0.09460572
   0.74989542  0.50005177  0.37989605
   0.58357300  0.41617200  0.19261966
   0.00109100  0.75115300  0.09468309
   0.00055473  0.75147202  0.37960003
   0.24902600  0.74885700  0.09449183
   0.24946233  0.74926284  0.37986674
   0.08375800  0.66810400  0.19148344
   0.49972500  0.74917300  0.09464107
   0.49899183  0.74842942  0.37920235
   0.33297400  0.66727700  0.19107398
   0.75128300  0.75093600  0.09543333
   0.74918647  0.74867990  0.37929111
   0.58298100  0.66668200  0.19119569
   0.41632676  0.58381399  0.28416366
   0.83395900  0.66770600  0.19166513
   0.91743860  0.58531329  0.28575756
   0.08291700  0.91685800  0.19187232
   0.33420600  0.91705400  0.19206792
   0.16756092  0.83453540  0.28596811
   0.41580159  0.83232206  0.28643114
   0.83233100  0.91715000  0.19302274
   0.66592206  0.83280823  0.28641856
   0.91656806  0.83370885  0.28602576
   0.16014741  0.07998296  0.28633996
   0.41826669  0.07862173  0.28672707
   0.24829900  0.49904600  0.09513485
   0.24677882  0.49875352  0.37990095
   0.50648100  0.50259500  0.09587930
   0.50304811  0.50090229  0.38100632
   0.33134100  0.41714300  0.19246231
   0.41460302  0.33250873  0.28639024
   0.83354800  0.41839000  0.19117395
   0.66784022  0.33242432  0.28919580
   0.91447277  0.32802110  0.28863461
   0.16875056  0.58933754  0.28441548
   0.67141570  0.59119984  0.28416710
   0.58310400  0.91651500  0.19252114
Direct configuration=     5
   0.00052900  0.00053000  0.09593319
  -0.00007425  0.00073546  0.38067393
   0.25001300  0.00028700  0.09507516
   0.24985004  0.00154391  0.38051681
   0.49948700  0.99908000  0.09580077
   0.50043159 -0.00119937  0.38106744
   0.74930200  0.99919300  0.09588248
   0.74987538  0.99992344  0.37964188
   0.99864000  0.24850700  0.09577903
  -0.00123635  0.24820792  0.38129634
   0.25012600  0.25021600  0.09542058
   0.25109621  0.25037771  0.38094579
   0.08288200  0.16633200  0.19236263
   0.50064200  0.24891300  0.09586799
   0.49866682  0.24765327  0.38144496
   0.33293900  0.16685800  0.19242841
   0.75052500  0.25006200  0.09669473
   0.75033502  0.25040672  0.38324132
   0.58230700  0.16720100  0.19338931
   0.83403200  0.16672400  0.19313692
   0.66658981  0.08223125  0.28614164
   0.91549464  0.08189259  0.28597860
   0.00183400  0.50047500  0.09438867
   0.00107822  0.50100023  0.38012247
   0.08092200  0.41609700  0.19263386
   0.16645332  0.33710738  0.28697671
   0.75170200  0.50186900  0.09460572
   0.75019260  0.50128819  0.38035570
   0.58357300  0.41617200  0.19261966
   0.00109100  0.75115300  0.09468309
   0.00106150  0.75232924  0.38022548
   0.24902600  0.74885700  0.09449183
   0.24904867  0.74959255  0.38031884
   0.08375800  0.66810400  0.19148344
   0.49972500  0.74917300  0.09464107
   0.49911858  0.74891620  0.37962234
   0.33297400  0.66727700  0.19107398
   0.75128300  0.75093600  0.09543333
   0.74999149  0.74927501  0.38011879
   0.58298100  0.66668200  0.19119569
   0.41626582  0.58331795  0.28632825
   0.83395900  0.66770600  0.19166513
   0.91739190  0.58356450  0.28609607
   0.08291700  0.91685800  0.19187232
   0.33420600  0.91705400  0.19206792
   0.16730307  0.83659575  0.28615684
   0.41663986  0.83172731  0.28683064
   0.83233100  0.91715000  0.19302274
   0.66620418  0.83386599  0.28670820
   0.91769252  0.83481485  0.28609134
   0.15803805  0.07860945  0.28673257
   0.41617845  0.07534586  0.28681494
   0.24829900  0.49904600  0.09513485
   0.24529659  0.49841174  0.38128341
   0.50648100  0.50259500  0.09587930
   0.50553339  0.50220993  0.38319515
   0.33134100  0.41714300  0.19246231
   0.41671722  0.33330055  0.28819513
   0.83354800  0.41839000  0.19117395
   0.66712786  0.33401005  0.29011798
   0.91658787  0.32687423  0.28960922
   0.16988242  0.59075023  0.28492729
   0.67045469  0.59195186  0.28483236
   0.58310400  0.91651500  0.19252114
Direct configuration=     6
   0.00052900  0.00053000  0.09593319
  -0.00039422  0.00053993  0.38139291
   0.25001300  0.00028700  0.09507516
   0.24953761  0.00167670  0.38084772
   0.49948700  0.99908000  0.09580077
   0.50058511 -0.00107285  0.38174177
   0.74930200  0.99919300  0.09588248
   0.74988983  0.99996546  0.38045483
   0.99864000  0.24850700  0.09577903
  -0.00168383  0.24696303  0.38232029
   0.25012600  0.25021600  0.09542058
   0.25107906  0.25075349  0.38150347
   0.08288200  0.16633200  0.19236263
   0.50064200  0.24891300  0.09586799
   0.49832827  0.24667059  0.38214460
   0.33293900  0.16685800  0.19242841
   0.75052500  0.25006200  0.09669473
   0.75009068  0.25033814  0.38398854
   0.58230700  0.16720100  0.19338931
   0.83403200  0.16672400  0.19313692
   0.66644360  0.08390047  0.28695302
   0.91605427  0.08207697  0.28635448
   0.00183400  0.50047500  0.09438867
   0.00103953  0.50063026  0.38042265
   0.08092200  0.41609700  0.19263386
   0.16713377  0.33722277  0.28763410
   0.75170200  0.50186900  0.09460572
   0.75055321  0.50161807  0.38100493
   0.58357300  0.41617200  0.19261966
   0.00109100  0.75115300  0.09468309
   0.00104572  0.75231193  0.38048962
   0.24902600  0.74885700  0.09449183
   0.24917959  0.75000219  0.38062776
   0.08375800  0.66810400  0.19148344
   0.49972500  0.74917300  0.09464107
   0.49908996  0.74862282  0.38055598
   0.33297400  0.66727700  0.19107398
   0.75128300  0.75093600  0.09543333
   0.75018011  0.74971433  0.38055991
   0.58298100  0.66668200  0.19119569
   0.41659431  0.58264957  0.28724902
   0.83395900  0.66770600  0.19166513
   0.91704217  0.58289452  0.28622928
   0.08291700  0.91685800  0.19187232
   0.33420600  0.91705400  0.19206792
   0.16670074  0.83612557  0.28624984
   0.41677199  0.83173591  0.28707267
   0.83233100  0.91715000  0.19302274
   0.66628337  0.83340882  0.28687158
   0.91697860  0.83347390  0.28637693
   0.15977866  0.08127750  0.28706807
   0.41664673  0.07630058  0.28721877
   0.24829900  0.49904600  0.09513485
   0.24521665  0.49847711  0.38199726
   0.50648100  0.50259500  0.09587930
   0.50610642  0.50260618  0.38452974
   0.33134100  0.41714300  0.19246231
   0.41687499  0.33301597  0.28893224
   0.83354800  0.41839000  0.19117395
   0.66732164  0.33276189  0.29057952
   0.91545109  0.32692123  0.29023212
   0.16966450  0.59034866  0.28551896
   0.66947753  0.59098876  0.28565489
   0.58310400  0.91651500  0.19252114
Direct configuration=     7
   0.00052900  0.00053000  0.09593319
  -0.00076039  0.00031617  0.38221571
   0.25001300  0.00028700  0.09507516
   0.24918008  0.00182867  0.38122640
   0.49948700  0.99908000  0.09580077
   0.50076080 -0.00092806  0.38251346
   0.74930200  0.99919300  0.09588248
   0.74990636  0.00001356  0.38138517
   0.99864000  0.24850700  0.09577903
  -0.00219591  0.24553838  0.38349209
   0.25012600  0.25021600  0.09542058
   0.25105943  0.25118353  0.38214166
   0.08288200  0.16633200  0.19236263
   0.50064200  0.24891300  0.09586799
   0.49794085  0.24554603  0.38294527
   0.33293900  0.16685800  0.19242841
   0.75052500  0.25006200  0.09669473
   0.74981107  0.25025967  0.38484365
   0.58230700  0.16720100  0.19338931
   0.83403200  0.16672400  0.19313692
   0.66627629  0.08581071  0.28788156
   0.91669470  0.08228796  0.28678463
   0.00183400  0.50047500  0.09438867
   0.00099526  0.50020688  0.38076616
   0.08092200  0.41609700  0.19263386
   0.16791248  0.33735482  0.28838641
   0.75170200  0.50186900  0.09460572
   0.75096589  0.50199558  0.38174789
   0.58357300  0.41617200  0.19261966
   0.00109100  0.75115300  0.09468309
   0.00102766  0.75229212  0.38079190
   0.24902600  0.74885700  0.09449183
   0.24932942  0.75047098  0.38098128
   0.08375800  0.66810400  0.19148344
   0.49972500  0.74917300  0.09464107
   0.49905722  0.74828707  0.38162441
   0.33297400  0.66727700  0.19107398
   0.75128300  0.75093600  0.09543333
   0.75039596  0.75021708  0.38106471
   0.58298100  0.66668200  0.19119569
   0.41697024  0.58188467  0.28830274
   0.83395900  0.66770600  0.19166513
   0.91664194  0.58212780  0.28638173
   0.08291700  0.91685800  0.19187232
   0.33420600  0.91705400  0.19206792
   0.16601143  0.83558750  0.28635628
   0.41692319  0.83174575  0.28734964
   0.83233100  0.91715000  0.19302274
   0.66637400  0.83288564  0.28705855
   0.91616160  0.83193933  0.28670376
   0.16177059  0.08433079  0.28745202
   0.41718263  0.07739315  0.28768090
   0.24829900  0.49904600  0.09513485
   0.24512517  0.49855193  0.38281419
   0.50648100  0.50259500  0.09587930
   0.50676218  0.50305964  0.38605703
   0.33134100  0.41714300  0.19246231
   0.41705554  0.33269030  0.28977578
   0.83354800  0.41839000  0.19117395
   0.66754339  0.33133352  0.29110770
   0.91415017  0.32697502  0.29094496
   0.16941511  0.58988910  0.28619605
   0.66835927  0.58988661  0.28659618
   0.58310400  0.91651500  0.19252114
Direct configuration=     8
   0.00052900  0.00053000  0.09593319
  -0.00030336  0.00016468  0.38228612
   0.25001300  0.00028700  0.09507516
   0.24877278  0.00158822  0.38148798
   0.49948700  0.99908000  0.09580077
   0.50025710 -0.00130813  0.38276767
   0.74930200  0.99919300  0.09588248
   0.74940891 -0.00045495  0.38182645
   0.99864000  0.24850700  0.09577903
  -0.00213935  0.24587998  0.38391907
   0.25012600  0.25021600  0.09542058
   0.25137719  0.25193445  0.38312114
   0.08288200  0.16633200  0.19236263
   0.50064200  0.24891300  0.09586799
   0.49853540  0.24610244  0.38387127
   0.33293900  0.16685800  0.19242841
   0.75052500  0.25006200  0.09669473
   0.75001196  0.25067192  0.38526423
   0.58230700  0.16720100  0.19338931
   0.83403200  0.16672400  0.19313692
   0.66607956  0.08504073  0.28833902
   0.91682497  0.08291427  0.28744037
   0.00183400  0.50047500  0.09438867
   0.00063831  0.49973640  0.38157475
   0.08092200  0.41609700  0.19263386
   0.16700164  0.33648825  0.28854757
   0.75170200  0.50186900  0.09460572
   0.75088775  0.50131400  0.38228764
   0.58357300  0.41617200  0.19261966
   0.00109100  0.75115300  0.09468309
   0.00088974  0.75179817  0.38097194
   0.24902600  0.74885700  0.09449183
   0.24961895  0.75083407  0.38126296
   0.08375800  0.66810400  0.19148344
   0.49972500  0.74917300  0.09464107
   0.49915961  0.74829539  0.38234374
   0.33297400  0.66727700  0.19107398
   0.75128300  0.75093600  0.09543333
   0.75025527  0.75048299  0.38156891
   0.58298100  0.66668200  0.19119569
   0.41715101  0.58201089  0.28838115
   0.83395900  0.66770600  0.19166513
   0.91607870  0.58212806  0.28644881
   0.08291700  0.91685800  0.19187232
   0.33420600  0.91705400  0.19206792
   0.16628368  0.83551530  0.28651360
   0.41709546  0.83209557  0.28775940
   0.83233100  0.91715000  0.19302274
   0.66619025  0.83321850  0.28753745
   0.91639865  0.83224150  0.28699357
   0.16224332  0.08432729  0.28774990
   0.41684128  0.07757105  0.28801107
   0.24829900  0.49904600  0.09513485
   0.24556580  0.49868071  0.38339104
   0.50648100  0.50259500  0.09587930
   0.50617957  0.50254886  0.38719695
   0.33134100  0.41714300  0.19246231
   0.41770261  0.33306997  0.28986213
   0.83354800  0.41839000  0.19117395
   0.66764256  0.33174722  0.29142541
   0.91458275  0.32689538  0.29128465
   0.16919102  0.58928868  0.28632086
   0.66821643  0.58831478  0.28693699
   0.58310400  0.91651500  0.19252114
Direct configuration=     9
   0.00052900  0.00053000  0.09593319
  -0.00010424  0.00009868  0.38231680
   0.25001300  0.00028700  0.09507516
   0.24859533  0.00148346  0.38160194
   0.49948700  0.99908000  0.09580077
   0.50003765 -0.00147372  0.38287842
   0.74930200  0.99919300  0.09588248
   0.74919219 -0.00065906  0.38201870
   0.99864000  0.24850700  0.09577903
  -0.00211470  0.24602881  0.38410509
   0.25012600  0.25021600  0.09542058
   0.25151563  0.25226160  0.38354786
   0.08288200  0.16633200  0.19236263
   0.50064200  0.24891300  0.09586799
   0.49879442  0.24634485  0.38427469
   0.33293900  0.16685800  0.19242841
   0.75052500  0.25006200  0.09669473
   0.75009948  0.25085152  0.38544747
   0.58230700  0.16720100  0.19338931
   0.83403200  0.16672400  0.19313692
   0.66599386  0.08470527  0.28853832
   0.91688172  0.08318712  0.28772605
   0.00183400  0.50047500  0.09438867
   0.00048280  0.49953143  0.38192703
   0.08092200  0.41609700  0.19263386
   0.16660482  0.33611071  0.28861777
   0.75170200  0.50186900  0.09460572
   0.75085370  0.50101705  0.38252278
   0.58357300  0.41617200  0.19261966
   0.00109100  0.75115300  0.09468309
   0.00082966  0.75158297  0.38105037
   0.24902600  0.74885700  0.09449183
   0.24974508  0.75099225  0.38138568
   0.08375800  0.66810400  0.19148344
   0.49972500  0.74917300  0.09464107
   0.49920422  0.74829902  0.38265713
   0.33297400  0.66727700  0.19107398
   0.75128300  0.75093600  0.09543333
   0.75019398  0.75059883  0.38178858
   0.58298100  0.66668200  0.19119569
   0.41722977  0.58206588  0.28841530
   0.83395900  0.66770600  0.19166513
   0.91583332  0.58212818  0.28647804
   0.08291700  0.91685800  0.19187232
   0.33420600  0.91705400  0.19206792
   0.16640229  0.83548384  0.28658214
   0.41717052  0.83224797  0.28793791
   0.83233100  0.91715000  0.19302274
   0.66611020  0.83336351  0.28774608
   0.91650192  0.83237315  0.28711982
   0.16244928  0.08432576  0.28787967
   0.41669257  0.07764855  0.28815491
   0.24829900  0.49904600  0.09513485
   0.24575777  0.49873682  0.38364236
   0.50648100  0.50259500  0.09587930
   0.50592575  0.50232633  0.38769358
   0.33134100  0.41714300  0.19246231
   0.41798451  0.33323538  0.28989975
   0.83354800  0.41839000  0.19117395
   0.66768577  0.33192745  0.29156382
   0.91477122  0.32686069  0.29143265
   0.16909340  0.58902710  0.28637523
   0.66815420  0.58762999  0.28708547
   0.58310400  0.91651500  0.19252114
Direct configuration=    10
   0.00052900  0.00053000  0.09593319
   0.00029197  0.00027097  0.38226740
   0.25001300  0.00028700  0.09507516
   0.24877910  0.00159649  0.38182477
   0.49948700  0.99908000  0.09580077
   0.49975913 -0.00144626  0.38297659
   0.74930200  0.99919300  0.09588248
   0.74910613 -0.00071306  0.38222719
   0.99864000  0.24850700  0.09577903
  -0.00184274  0.24670308  0.38422973
   0.25012600  0.25021600  0.09542058
   0.25198788  0.25258835  0.38375587
   0.08288200  0.16633200  0.19236263
   0.50064200  0.24891300  0.09586799
   0.49898930  0.24695485  0.38452591
   0.33293900  0.16685800  0.19242841
   0.75052500  0.25006200  0.09669473
   0.75019684  0.25076038  0.38548852
   0.58230700  0.16720100  0.19338931
   0.83403200  0.16672400  0.19313692
   0.66605724  0.08431116  0.28834005
   0.91655597  0.08286786  0.28779582
   0.00183400  0.50047500  0.09438867
   0.00070152  0.49971888  0.38222824
   0.08092200  0.41609700  0.19263386
   0.16677895  0.33600836  0.28867503
   0.75170200  0.50186900  0.09460572
   0.75051258  0.50075367  0.38283399
   0.58357300  0.41617200  0.19261966
   0.00109100  0.75115300  0.09468309
   0.00064887  0.75111219  0.38114044
   0.24902600  0.74885700  0.09449183
   0.24946129  0.75042573  0.38152233
   0.08375800  0.66810400  0.19148344
   0.49972500  0.74917300  0.09464107
   0.49905315  0.74810061  0.38274740
   0.33297400  0.66727700  0.19107398
   0.75128300  0.75093600  0.09543333
   0.74982840  0.74989337  0.38189576
   0.58298100  0.66668200  0.19119569
   0.41705547  0.58225395  0.28834709
   0.83395900  0.66770600  0.19166513
   0.91626041  0.58243508  0.28667381
   0.08291700  0.91685800  0.19187232
   0.33420600  0.91705400  0.19206792
   0.16659648  0.83533629  0.28666060
   0.41684561  0.83194165  0.28805151
   0.83233100  0.91715000  0.19302274
   0.66612431  0.83292812  0.28794811
   0.91645060  0.83286022  0.28715088
   0.16195759  0.08345717  0.28795980
   0.41692099  0.07778548  0.28826836
   0.24829900  0.49904600  0.09513485
   0.24596970  0.49890350  0.38366682
   0.50648100  0.50259500  0.09587930
   0.50564080  0.50201419  0.38794943
   0.33134100  0.41714300  0.19246231
   0.41764193  0.33324589  0.29024079
   0.83354800  0.41839000  0.19117395
   0.66741332  0.33155684  0.29171160
   0.91502343  0.32699199  0.29147321
   0.16901914  0.58897331  0.28645745
   0.66862474  0.58845996  0.28719658
   0.58310400  0.91651500  0.19252114
