       N       E                     dE             d eps       ncg     rms          rms(c)
DAV:   1     0.474080293014E+04    0.47408E+04   -0.24305E+05 30000   0.159E+03
DAV:   2     0.613092335859E+02   -0.46795E+04   -0.44466E+04 30009   0.375E+02
DAV:   3    -0.409770018729E+03   -0.47108E+03   -0.41213E+03 32082   0.157E+02
DAV:   4    -0.479902691512E+03   -0.70133E+02   -0.64443E+02 56292   0.457E+01
DAV:   5    -0.484679640645E+03   -0.47769E+01   -0.46891E+01 42567   0.110E+01
RMM:   6    -0.484767966792E+03   -0.88326E-01   -0.88347E-01 30651   0.194E+00
RMM:   7    -0.484787740042E+03   -0.19773E-01   -0.19901E-01 46998   0.463E-01
RMM:   8    -0.484787173377E+03    0.56667E-03   -0.11758E-02 54857   0.101E-01
RMM:   9    -0.484787338189E+03   -0.16481E-03   -0.29142E-03 54399   0.365E-02
RMM:  10    -0.484787349629E+03   -0.11440E-04   -0.59049E-04 42847   0.154E-02
RMM:  11    -0.484787354507E+03   -0.48779E-05   -0.18452E-04 33568   0.631E-03
RMM:  12    -0.484787355701E+03   -0.11941E-05   -0.58236E-05 27875   0.365E-03
RMM:  13    -0.484787355907E+03   -0.20608E-06   -0.19149E-05 25485   0.236E-03
RMM:  14    -0.484787355964E+03   -0.57742E-07   -0.68677E-06 23213   0.164E-03
   1 F= -.49947185E+03 E0= -.49947185E+03  d E =0.000000E+00  mag=    87.0766
