 vasp.5.4.4.18Apr17-6-g9f103f2a35 (build Dec 15 2018 21:27:11) complex          
  
 executed on             LinuxIFC date 2022.02.24  04:00:21
 running on   72 total cores
 distrk:  each k-point on   72 cores,    1 groups
 distr:  one band on NCORES_PER_BAND=  24 cores,    3 groups


--------------------------------------------------------------------------------------------------------


 INCAR:
 POTCAR:    PAW_PBE Fe 06Sep2000                  
 POTCAR:    PAW_PBE Ni 02Aug2007                  
 POTCAR:    PAW_PBE O 08Apr2002                   

 ----------------------------------------------------------------------------- 
|                                                                             |
|           W    W    AA    RRRRR   N    N  II  N    N   GGGG   !!!           |
|           W    W   A  A   R    R  NN   N  II  NN   N  G    G  !!!           |
|           W    W  A    A  R    R  N N  N  II  N N  N  G       !!!           |
|           W WW W  AAAAAA  RRRRR   N  N N  II  N  N N  G  GGG   !            |
|           WW  WW  A    A  R   R   N   NN  II  N   NN  G    G                |
|           W    W  A    A  R    R  N    N  II  N    N   GGGG   !!!           |
|                                                                             |
|      For optimal performance we recommend to set                            |
|        NCORE= 4 - approx SQRT( number of cores)                             |
|      NCORE specifies how many cores store one orbital (NPAR=cpu/NCORE).     |
|      This setting can  greatly improve the performance of VASP for DFT.     |
|      The default,   NCORE=1            might be grossly inefficient         |
|      on modern multi-core architectures or massively parallel machines.     |
|      Do your own testing !!!!                                               |
|      Unfortunately you need to use the default for GW and RPA calculations. |
|      (for HF NCORE is supported but not extensively tested yet)             |
|                                                                             |
 ----------------------------------------------------------------------------- 

 POTCAR:    PAW_PBE Fe 06Sep2000                  
   VRHFIN =Fe:  d7 s1                                                           
   LEXCH  = PE                                                                  
   EATOM  =   594.3153 eV,   43.6809 Ry                                         
                                                                                
   TITEL  = PAW_PBE Fe 06Sep2000                                                
   LULTRA =        F    use ultrasoft PP ?                                      
   IUNSCR =        1    unscreen: 0-lin 1-nonlin 2-no                           
   RPACOR =    2.000    partial core radius                                     
   POMASS =   55.847; ZVAL   =    8.000    mass and valenz                      
   RCORE  =    2.300    outmost cutoff radius                                   
   RWIGS  =    2.460; RWIGS  =    1.302    wigner-seitz radius (au A)           
   ENMAX  =  267.882; ENMIN  =  200.911 eV                                      
   RCLOC  =    1.701    cutoff for local pot                                    
   LCOR   =        T    correct aug charges                                     
   LPAW   =        T    paw PP                                                  
   EAUG   =  511.368                                                            
   DEXC   =    0.000                                                            
   RMAX   =    2.356    core radius for proj-oper                               
   RAUG   =    1.300    factor for augmentation sphere                          
   RDEP   =    2.442    radius for radial grids                                 
   RDEPT  =    1.890    core radius for aug-charge                              
                                                                                
   Atomic configuration                                                         
    9 entries                                                                   
     n  l   j            E        occ.                                          
     1  0  0.50     -6993.8440   2.0000                                         
     2  0  0.50      -814.6047   2.0000                                         
     2  1  1.50      -693.3689   6.0000                                         
     3  0  0.50       -89.4732   2.0000                                         
     3  1  1.50       -55.6373   6.0000                                         
     3  2  2.50        -3.8151   7.0000                                         
     4  0  0.50        -4.2551   1.0000                                         
     4  1  1.50        -3.4015   0.0000                                         
     4  3  2.50        -1.3606   0.0000                                         
   Description                                                                  
     l       E           TYP  RCUT    TYP  RCUT                                 
     2     -3.8151135     23  2.300                                             
     2     -5.1756961     23  2.300                                             
     0     -4.2550963     23  2.300                                             
     0      7.2035603     23  2.300                                             
     1     -2.7211652     23  2.300                                             
     1     18.4316424     23  2.300                                             
  local pseudopotential read in
  partial core-charges read in
  partial kinetic energy density read in
  atomic valenz-charges read in
  non local Contribution for L=           2  read in
    real space projection operators read in
  non local Contribution for L=           2  read in
    real space projection operators read in
  non local Contribution for L=           0  read in
    real space projection operators read in
  non local Contribution for L=           0  read in
    real space projection operators read in
  non local Contribution for L=           1  read in
    real space projection operators read in
  non local Contribution for L=           1  read in
    real space projection operators read in
    PAW grid and wavefunctions read in
 
   number of l-projection  operators is LMAX  =           6
   number of lm-projection operators is LMMAX =          18
 
 POTCAR:    PAW_PBE Ni 02Aug2007                  
   VRHFIN =Ni:                                                                  
   LEXCH  = PE                                                                  
   EATOM  =  1077.6739 eV,   79.2068 Ry                                         
                                                                                
   TITEL  = PAW_PBE Ni 02Aug2007                                                
   LULTRA =        F    use ultrasoft PP ?                                      
   IUNSCR =        1    unscreen: 0-lin 1-nonlin 2-no                           
   RPACOR =    2.000    partial core radius                                     
   POMASS =   58.690; ZVAL   =   10.000    mass and valenz                      
   RCORE  =    2.300    outmost cutoff radius                                   
   RWIGS  =    2.430; RWIGS  =    1.286    wigner-seitz radius (au A)           
   ENMAX  =  269.532; ENMIN  =  202.149 eV                                      
   RCLOC  =    1.201    cutoff for local pot                                    
   LCOR   =        T    correct aug charges                                     
   LPAW   =        T    paw PP                                                  
   EAUG   =  544.565                                                            
   DEXC   =    0.000                                                            
   RMAX   =    2.357    core radius for proj-oper                               
   RAUG   =    1.300    factor for augmentation sphere                          
   RDEP   =    2.390    radius for radial grids                                 
   RDEPT  =    1.838    core radius for aug-charge                              
                                                                                
   Atomic configuration                                                         
    9 entries                                                                   
     n  l   j            E        occ.                                          
     1  0  0.50     -8206.4253   2.0000                                         
     2  0  0.50      -976.1748   2.0000                                         
     2  1  1.50      -839.0571   6.0000                                         
     3  0  0.50      -105.9991   2.0000                                         
     3  1  1.50       -66.4603   6.0000                                         
     3  2  2.50        -4.6458   9.0000                                         
     4  0  0.50        -4.4926   1.0000                                         
     4  1  1.50        -4.0817   0.0000                                         
     4  3  2.50        -1.3606   0.0000                                         
   Description                                                                  
     l       E           TYP  RCUT    TYP  RCUT                                 
     2     -4.6457903     23  2.300                                             
     2     -6.0063729     23  2.300                                             
     0     -4.4925590     23  2.300                                             
     0      5.0102601     23  2.300                                             
     1     -2.7211652     23  2.300                                             
     1     16.5183231     23  2.300                                             
  local pseudopotential read in
  partial core-charges read in
  partial kinetic energy density read in
  atomic valenz-charges read in
  non local Contribution for L=           2  read in
    real space projection operators read in
  non local Contribution for L=           2  read in
    real space projection operators read in
  non local Contribution for L=           0  read in
    real space projection operators read in
  non local Contribution for L=           0  read in
    real space projection operators read in
  non local Contribution for L=           1  read in
    real space projection operators read in
  non local Contribution for L=           1  read in
    real space projection operators read in
    PAW grid and wavefunctions read in
 
   number of l-projection  operators is LMAX  =           6
   number of lm-projection operators is LMMAX =          18
 
 POTCAR:    PAW_PBE O 08Apr2002                   
   VRHFIN =O: s2p4                                                              
   LEXCH  = PE                                                                  
   EATOM  =   432.3788 eV,   31.7789 Ry                                         
                                                                                
   TITEL  = PAW_PBE O 08Apr2002                                                 
   LULTRA =        F    use ultrasoft PP ?                                      
   IUNSCR =        1    unscreen: 0-lin 1-nonlin 2-no                           
   RPACOR =    1.200    partial core radius                                     
   POMASS =   16.000; ZVAL   =    6.000    mass and valenz                      
   RCORE  =    1.520    outmost cutoff radius                                   
   RWIGS  =    1.550; RWIGS  =    0.820    wigner-seitz radius (au A)           
   ENMAX  =  400.000; ENMIN  =  300.000 eV                                      
   ICORE  =        2    local potential                                         
   LCOR   =        T    correct aug charges                                     
   LPAW   =        T    paw PP                                                  
   EAUG   =  605.392                                                            
   DEXC   =    0.000                                                            
   RMAX   =    1.553    core radius for proj-oper                               
   RAUG   =    1.300    factor for augmentation sphere                          
   RDEP   =    1.550    radius for radial grids                                 
   RDEPT  =    1.329    core radius for aug-charge                              
                                                                                
   Atomic configuration                                                         
    4 entries                                                                   
     n  l   j            E        occ.                                          
     1  0  0.50      -514.6923   2.0000                                         
     2  0  0.50       -23.9615   2.0000                                         
     2  1  0.50        -9.0305   4.0000                                         
     3  2  1.50        -9.5241   0.0000                                         
   Description                                                                  
     l       E           TYP  RCUT    TYP  RCUT                                 
     0    -23.9615318     23  1.200                                             
     0     -9.5240782     23  1.200                                             
     1     -9.0304911     23  1.520                                             
     1      8.1634956     23  1.520                                             
     2     -9.5240782      7  1.500                                             
  local pseudopotential read in
  partial core-charges read in
  partial kinetic energy density read in
  kinetic energy density of atom read in
  atomic valenz-charges read in
  non local Contribution for L=           0  read in
    real space projection operators read in
  non local Contribution for L=           0  read in
    real space projection operators read in
  non local Contribution for L=           1  read in
    real space projection operators read in
  non local Contribution for L=           1  read in
    real space projection operators read in
    PAW grid and wavefunctions read in
 
   number of l-projection  operators is LMAX  =           4
   number of lm-projection operators is LMMAX =           8
 
 Optimization of the real space projectors (new method)

 maximal supplied QI-value         = 16.25
 optimisation between [QCUT,QGAM] = [ 11.54, 23.24] = [ 37.28,151.24] Ry 
 Optimized for a Real-space Cutoff    1.53 Angstroem

   l    n(q)    QCUT    max X(q) W(low)/X(q) W(high)/X(q)  e(spline) 
   2     10    11.539    80.901    0.11E-03    0.14E-03    0.21E-06
   2     10    11.539    75.754    0.11E-03    0.14E-03    0.22E-06
   0     11    11.539    58.752    0.52E-04    0.18E-04    0.33E-06
   0     11    11.539    30.679    0.44E-04    0.16E-04    0.30E-06
   1     10    11.539    17.977    0.53E-04    0.29E-04    0.13E-06
   1     10    11.539    13.559    0.44E-04    0.25E-04    0.11E-06
 Optimization of the real space projectors (new method)

 maximal supplied QI-value         = 16.25
 optimisation between [QCUT,QGAM] = [ 11.54, 23.24] = [ 37.28,151.24] Ry 
 Optimized for a Real-space Cutoff    1.45 Angstroem

   l    n(q)    QCUT    max X(q) W(low)/X(q) W(high)/X(q)  e(spline) 
   2      9    11.539    60.317    0.19E-03    0.47E-04    0.16E-06
   2      9    11.539    55.921    0.19E-03    0.48E-04    0.16E-06
   0     10    11.539    51.690    0.80E-04    0.50E-04    0.24E-06
   0     10    11.539    30.015    0.73E-04    0.45E-04    0.22E-06
   1     10    11.539    18.849    0.87E-04    0.16E-03    0.71E-07
   1     10    11.539    14.624    0.73E-04    0.13E-03    0.64E-07
 Optimization of the real space projectors (new method)

 maximal supplied QI-value         = 24.76
 optimisation between [QCUT,QGAM] = [ 11.64, 23.27] = [ 37.91,151.63] Ry 
 Optimized for a Real-space Cutoff    1.14 Angstroem

   l    n(q)    QCUT    max X(q) W(low)/X(q) W(high)/X(q)  e(spline) 
   0      8    11.635    20.381    0.10E-03    0.33E-03    0.24E-06
   0      8    11.635    15.268    0.11E-03    0.35E-03    0.26E-06
   1      7    11.635     5.964    0.24E-03    0.31E-03    0.30E-06
   1      7    11.635     5.382    0.22E-03    0.25E-03    0.26E-06
  PAW_PBE Fe 06Sep2000                  :
 energy of atom  1       EATOM= -594.3153
 kinetic energy error for atom=    0.0026 (will be added to EATOM!!)
  PAW_PBE Ni 02Aug2007                  :
 energy of atom  2       EATOM=-1077.6739
 kinetic energy error for atom=    0.0030 (will be added to EATOM!!)
  PAW_PBE O 08Apr2002                   :
 energy of atom  3       EATOM= -432.3788
 kinetic energy error for atom=    0.0208 (will be added to EATOM!!)
 
 
 POSCAR: POSCAR                                  
  positions in direct lattice
  velocities in cartesian coordinates
 exchange correlation table for  LEXCH =        8
   RHO(1)=    0.500       N(1)  =     2000
   RHO(2)=  100.500       N(2)  =     4000

 VTST: version 3.2, (02/03/18)

 CHAIN: initializing optimizer
 
 OPT: Using VASP Dynamics algorithm
 CHAIN: Read ICHAIN            0
 
 POSCAR: POSCAR                                  
  positions in direct lattice
  velocities in cartesian coordinates
 


--------------------------------------------------------------------------------------------------------


 ion  position               nearest neighbor table
   1  0.002  0.999  0.097-   9 2.45  29 2.50  49 2.51  64 2.51  44 2.53   7 2.53  51 2.54  38 2.55
                             5 2.60
   2  0.001  0.003  0.381-  11 2.38  57 2.47   8 2.49   6 2.51  52 2.51  48 2.52  30 2.53  39 2.55
                            50 2.57
   3  0.499  0.996  0.096-   5 2.47  62 2.50  34 2.52  31 2.52  49 2.53  45 2.55  55 2.55  12 2.56
                            53 2.58
   4  0.504  0.001  0.379-  15 2.41  13 2.43  63 2.48  56 2.52   6 2.52  54 2.52  32 2.53  35 2.53
                            50 2.54
   5  0.743  0.996  0.094-   3 2.47  34 2.47  62 2.52  38 2.53  55 2.54  64 2.58  14 2.58  51 2.59
                             1 2.60
   6  0.749  0.996  0.388-  68 1.81  35 2.46  39 2.50   2 2.51   4 2.52  47 2.53  56 2.57  15 2.58
                            52 2.60  57 2.61
   7  0.249  0.253  0.097-  22 2.43   9 2.44  51 2.49  18 2.52  20 2.53   1 2.53  53 2.54  10 2.55
                            49 2.58
   8  0.249  0.247  0.385-  66 1.81   2 2.49  21 2.50  11 2.50  52 2.50  19 2.51  50 2.53  59 2.55
                            54 2.55  26 2.55
   9  0.089  0.161  0.191-  10 2.41   7 2.44   1 2.45  44 2.47  51 2.52  59 2.53  57 2.53  64 2.54
                            11 2.55  22 2.55  58 2.62  14 2.68
  10  0.330  0.166  0.195-   9 2.41  26 2.45  13 2.48  22 2.48  45 2.48  44 2.49  11 2.51   7 2.55
                            12 2.57  49 2.58  53 2.59  25 2.59
  11  0.162  0.075  0.291-   2 2.38  44 2.49   8 2.50  10 2.51  57 2.51  46 2.52  13 2.52  50 2.54
                             9 2.55  48 2.55  59 2.56  26 2.60
  12  0.583  0.166  0.194-  14 2.45  15 2.47  13 2.50  28 2.50  27 2.50  62 2.52  45 2.54  55 2.55
                             3 2.56  10 2.57  53 2.58  25 2.58
  13  0.414  0.082  0.289-   4 2.43  10 2.48  45 2.49  12 2.50  11 2.52  54 2.53  63 2.54  28 2.55
                            50 2.55  15 2.56  26 2.56  46 2.57
  14  0.827  0.167  0.193-  60 2.43  15 2.45  12 2.45  57 2.50  62 2.51  55 2.51  27 2.53  58 2.56
                            51 2.56   5 2.58  64 2.59   9 2.68
  15  0.667  0.082  0.288-   4 2.41  14 2.45  47 2.47  12 2.47  62 2.50  60 2.52  28 2.52  57 2.52
                            56 2.53  63 2.55  13 2.56   6 2.58
  16  0.003  0.511  0.095-  31 2.44  29 2.45  23 2.48  33 2.51  58 2.57  18 2.58  27 2.59  55 2.60
                            51 2.63
  17  0.000  0.503  0.374-  37 2.39  43 2.41  60 2.41  24 2.53  30 2.54  56 2.55  32 2.55  52 2.56
                            19 2.57
  18  0.256  0.506  0.097-  36 2.40  31 2.45  34 2.47  22 2.47  20 2.48   7 2.52  58 2.53  51 2.58
                            16 2.58
  19  0.249  0.495  0.383-  67 1.86  52 2.46  21 2.49  59 2.51   8 2.51  61 2.53  37 2.56  17 2.57
                            35 2.60  32 2.61
  20  0.500  0.503  0.098-  22 2.41  40 2.43  34 2.48  18 2.48  38 2.50  25 2.53   7 2.53  53 2.54
                            23 2.58
  21  0.495  0.495  0.376-  26 2.37  42 2.44  61 2.44  19 2.49   8 2.50  54 2.53  35 2.55  24 2.55
                            39 2.57
  22  0.339  0.416  0.189-  20 2.41   7 2.43  40 2.46  18 2.47  25 2.48  10 2.48  26 2.48  61 2.52
                            36 2.53  59 2.55   9 2.55  58 2.60
  23  0.757  0.508  0.096-  29 2.40  41 2.46  16 2.48  27 2.48  38 2.48  25 2.56  55 2.57  20 2.58
                            53 2.60
  24  0.745  0.491  0.387-  65 1.87  54 2.45  56 2.47  28 2.49  17 2.53  21 2.55  39 2.59  43 2.59
                            30 2.63  42 2.63
  25  0.586  0.422  0.194-  42 2.41  40 2.45  41 2.46  27 2.46  26 2.46  22 2.48  20 2.53  28 2.53
                            23 2.56  53 2.58  12 2.58  10 2.59
  26  0.416  0.336  0.286-  21 2.37  10 2.45  25 2.46  22 2.48  59 2.49  61 2.52  42 2.52   8 2.55
                            13 2.56  28 2.57  54 2.59  11 2.60
  27  0.827  0.417  0.192-  41 2.45  25 2.46  23 2.48  43 2.48  60 2.50  28 2.50  12 2.50  55 2.51
                            14 2.53  58 2.59  16 2.59  33 2.60
  28  0.668  0.332  0.290-  56 2.48  24 2.49  12 2.50  54 2.50  27 2.50  60 2.50  43 2.51  15 2.52
                            25 2.53  13 2.55  26 2.57  42 2.58
  29  0.992  0.747  0.096-  23 2.40  16 2.45  38 2.48  41 2.50   1 2.50  33 2.54  44 2.56  49 2.57
                            31 2.63
  30  0.003  0.754  0.386-  65 1.87  46 2.45  50 2.49  32 2.52   2 2.53  39 2.53  17 2.54  48 2.56
                            43 2.59  24 2.63
  31  0.251  0.746  0.097-  16 2.44  36 2.44  18 2.45  33 2.49  34 2.52   3 2.52  45 2.55  49 2.56
                            29 2.63
  32  0.251  0.754  0.386-  67 1.87  50 2.47  46 2.47  30 2.52   4 2.53  63 2.55  17 2.55  35 2.59
                            19 2.61  37 2.61
  33  0.086  0.671  0.192-  45 2.48  37 2.48  44 2.48  31 2.49  46 2.50  16 2.51  36 2.52  43 2.52
                            41 2.52  29 2.54  58 2.55  27 2.60
  34  0.502  0.749  0.098-  18 2.47   5 2.47  40 2.48  36 2.48  20 2.48  62 2.49  38 2.49  31 2.52
                             3 2.52
  35  0.506  0.752  0.385-  67 1.87   6 2.46  47 2.46  39 2.48   4 2.53  21 2.55  61 2.57  63 2.58
                            32 2.59  19 2.60
  36  0.330  0.661  0.190-  18 2.40  31 2.44  37 2.47  61 2.47  34 2.48  58 2.49  33 2.52  63 2.52
                            22 2.53  40 2.53  62 2.56  45 2.62
  37  0.169  0.583  0.285-  17 2.39  58 2.45  36 2.47  61 2.48  33 2.48  63 2.49  46 2.50  59 2.54
                            60 2.55  19 2.56  32 2.61  43 2.63
  38  0.748  0.749  0.094-  29 2.48  23 2.48  34 2.49  20 2.50   5 2.53  40 2.54  64 2.55   1 2.55
                            41 2.58
  39  0.750  0.749  0.381-  65 1.86  48 2.42  35 2.48  42 2.49  47 2.49   6 2.50  30 2.53   2 2.55
                            21 2.57  24 2.59
  40  0.580  0.661  0.192-  20 2.43  25 2.45  42 2.45  22 2.46  34 2.48  61 2.48  36 2.53  38 2.54
                            41 2.54  62 2.56  47 2.57  64 2.57
  41  0.832  0.662  0.193-  43 2.39  27 2.45  42 2.45  25 2.46  23 2.46  48 2.47  29 2.50  33 2.52
                            40 2.54  64 2.54  44 2.57  38 2.58
  42  0.665  0.585  0.286-  25 2.41  48 2.44  21 2.44  40 2.45  41 2.45  43 2.47  39 2.49  26 2.52
                            61 2.53  47 2.54  28 2.58  24 2.63
  43  0.910  0.586  0.286-  41 2.39  17 2.41  48 2.45  42 2.47  27 2.48  46 2.49  28 2.51  33 2.52
                            24 2.59  30 2.59  60 2.59  37 2.63
  44  0.086  0.916  0.194-  45 2.43   9 2.47  33 2.48  11 2.49  10 2.49  46 2.52   1 2.53  49 2.53
                            64 2.54  48 2.54  29 2.56  41 2.57
  45  0.327  0.919  0.193-  44 2.43  33 2.48  10 2.48  49 2.49  13 2.49  63 2.51  12 2.54  31 2.55
                            46 2.55   3 2.55  62 2.59  36 2.62
  46  0.161  0.826  0.291-  30 2.45  32 2.47  43 2.49  33 2.50  37 2.50  11 2.52  44 2.52  63 2.54
                            45 2.55  50 2.56  48 2.57  13 2.57
  47  0.663  0.835  0.288-  35 2.46  15 2.47  62 2.48  39 2.49  63 2.49  48 2.51  61 2.53   6 2.53
                            64 2.54  57 2.54  42 2.54  40 2.57
  48  0.906  0.826  0.288-  39 2.42  42 2.44  43 2.45  64 2.47  41 2.47  47 2.51   2 2.52  44 2.54
                            57 2.54  11 2.55  30 2.56  46 2.57
  49  0.249  0.998  0.096-  45 2.49   1 2.51  44 2.53   3 2.53  53 2.55  31 2.56  29 2.57  10 2.58
                             7 2.58
  50  0.252  0.998  0.388-  66 1.89  32 2.47  30 2.49   8 2.53  54 2.54  11 2.54   4 2.54  13 2.55
                            46 2.56   2 2.57
  51  0.001  0.250  0.097-   7 2.49  58 2.51   9 2.52   1 2.54  55 2.55  14 2.56  18 2.58   5 2.59
                            16 2.63
  52  0.005  0.254  0.382-  68 1.88  19 2.46  59 2.48   8 2.50   2 2.51  57 2.52  60 2.53  56 2.55
                            17 2.56   6 2.60
  53  0.499  0.252  0.095-  55 2.53   7 2.54  20 2.54  49 2.55   3 2.58  25 2.58  12 2.58  10 2.59
                            23 2.60
  54  0.502  0.249  0.385-  66 1.90  24 2.45  28 2.50  56 2.51   4 2.52  21 2.53  13 2.53  50 2.54
                             8 2.55  26 2.59
  55  0.749  0.251  0.096-  14 2.51  27 2.51  53 2.53   5 2.54  51 2.55   3 2.55  12 2.55  23 2.57
                            16 2.60
  56  0.751  0.250  0.385-  68 1.89  24 2.47  28 2.48  54 2.51   4 2.52  15 2.53  17 2.55  52 2.55
                            60 2.56   6 2.57
  57  0.917  0.083  0.287-   2 2.47  64 2.49  14 2.50  11 2.51  52 2.52  15 2.52  59 2.53  60 2.53
                             9 2.53  47 2.54  48 2.54   6 2.61
  58  0.083  0.417  0.192-  37 2.45  60 2.46  36 2.49  59 2.50  51 2.51  18 2.53  33 2.55  14 2.56
                            16 2.57  27 2.59  22 2.60   9 2.62
  59  0.168  0.332  0.287-  52 2.48  26 2.49  58 2.50  19 2.51  61 2.52  57 2.53   9 2.53  37 2.54
                             8 2.55  22 2.55  60 2.56  11 2.56
  60  0.915  0.332  0.285-  17 2.41  14 2.43  58 2.46  27 2.50  28 2.50  15 2.52  57 2.53  52 2.53
                            37 2.55  59 2.56  56 2.56  43 2.59
  61  0.414  0.584  0.286-  21 2.44  36 2.47  40 2.48  37 2.48  63 2.49  59 2.52  26 2.52  22 2.52
                            19 2.53  47 2.53  42 2.53  35 2.57
  62  0.582  0.915  0.192-  63 2.48  47 2.48  34 2.49   3 2.50  15 2.50  14 2.51   5 2.52  12 2.52
                            64 2.55  36 2.56  40 2.56  45 2.59
  63  0.414  0.830  0.286-   4 2.48  62 2.48  37 2.49  61 2.49  47 2.49  45 2.51  36 2.52  46 2.54
                            13 2.54  32 2.55  15 2.55  35 2.58
  64  0.834  0.915  0.192-  48 2.47  57 2.49   1 2.51  47 2.54   9 2.54  44 2.54  41 2.54  38 2.55
                            62 2.55  40 2.57   5 2.58  14 2.59
  65  0.830  0.665  0.437-  39 1.86  30 1.87  24 1.87
  66  0.332  0.173  0.440-   8 1.81  50 1.89  54 1.90
  67  0.334  0.663  0.437-  19 1.86  32 1.87  35 1.87
  68  0.838  0.163  0.437-   6 1.81  52 1.88  56 1.89
 

IMPORTANT INFORMATION: All symmetrisations will be switched off!
NOSYMM: (Re-)initialisation of all symmetry stuff for point group C_1.

 
 

Automatic generation of k-mesh.
 generate k-points for:    4    4    2
Space group operators:
 irot       det(A)        alpha          n_x          n_y          n_z        tau_x        tau_y        tau_z
    1     1.000000     0.000000     1.000000     0.000000     0.000000     0.000000     0.000000     0.000000
 
 Subroutine IBZKPT returns following result:
 ===========================================
 
 Found     20 irreducible k-points:
 
 Following reciprocal coordinates:
            Coordinates               Weight
  0.000000  0.000000  0.000000      1.000000
  0.250000  0.000000  0.000000      2.000000
  0.500000  0.000000  0.000000      1.000000
  0.000000  0.250000  0.000000      2.000000
  0.250000  0.250000  0.000000      2.000000
  0.500000  0.250000  0.000000      2.000000
 -0.250000  0.250000  0.000000      2.000000
  0.000000  0.500000  0.000000      1.000000
  0.250000  0.500000  0.000000      2.000000
  0.500000  0.500000  0.000000      1.000000
  0.000000  0.000000  0.500000      1.000000
  0.250000  0.000000  0.500000      2.000000
  0.500000  0.000000  0.500000      1.000000
  0.000000  0.250000  0.500000      2.000000
  0.250000  0.250000  0.500000      2.000000
  0.500000  0.250000  0.500000      2.000000
 -0.250000  0.250000  0.500000      2.000000
  0.000000  0.500000  0.500000      1.000000
  0.250000  0.500000  0.500000      2.000000
  0.500000  0.500000  0.500000      1.000000
 
 Following cartesian coordinates:
            Coordinates               Weight
  0.000000  0.000000  0.000000      1.000000
  0.024724  0.014274  0.000000      2.000000
  0.049448  0.028549  0.000000      1.000000
  0.000000  0.028549  0.000000      2.000000
  0.024724  0.042823  0.000000      2.000000
  0.049448  0.057098  0.000000      2.000000
 -0.024724  0.014274  0.000000      2.000000
  0.000000  0.057098  0.000000      1.000000
  0.024724  0.071372  0.000000      2.000000
  0.049448  0.085646  0.000000      1.000000
  0.000000  0.000000  0.023511      1.000000
  0.024724  0.014274  0.023511      2.000000
  0.049448  0.028549  0.023511      1.000000
  0.000000  0.028549  0.023511      2.000000
  0.024724  0.042823  0.023511      2.000000
  0.049448  0.057098  0.023511      2.000000
 -0.024724  0.014274  0.023511      2.000000
  0.000000  0.057098  0.023511      1.000000
  0.024724  0.071372  0.023511      2.000000
  0.049448  0.085646  0.023511      1.000000
 
 TETIRR: Found     96 inequivalent tetrahedra from      192


--------------------------------------------------------------------------------------------------------




 Dimension of arrays:
   k-points           NKPTS =     20   k-points in BZ     NKDIM =     20   number of bands    NBANDS=    375
   number of dos      NEDOS =    301   number of ions     NIONS =     68
   non local maximal  LDIM  =      6   non local SUM 2l+1 LMDIM =     18
   total plane-waves  NPLWV = ******
   max r-space proj   IRMAX =   8269   max aug-charges    IRDMAX=  19568
   dimension x,y,z NGX =    80 NGY =   80 NGZ =  160
   dimension x,y,z NGXF=   160 NGYF=  160 NGZF=  320
   support grid    NGXF=   160 NGYF=  160 NGZF=  320
   ions per type =              48  16   4
   NGX,Y,Z   is equivalent  to a cutoff of  13.15, 13.15, 12.51 a.u.
   NGXF,Y,Z  is equivalent  to a cutoff of  26.31, 26.31, 25.02 a.u.

 SYSTEM =  SQS-NiFe                                
 POSCAR =  POSCAR                                  

 Startparameter for this run:
   NWRITE =      2    write-flag & timer
   PREC   = accura    normal or accurate (medium, high low for compatibility)
   ISTART =      0    job   : 0-new  1-cont  2-samecut
   ICHARG =     11    charge: 1-file 2-atom 10-const
   ISPIN  =      2    spin polarized calculation?
   LNONCOLLINEAR =      F non collinear calculations
   LSORBIT =      F    spin-orbit coupling
   INIWAV =      1    electr: 0-lowe 1-rand  2-diag
   LASPH  =      F    aspherical Exc in radial PAW
   METAGGA=      F    non-selfconsistent MetaGGA calc.

 Electronic Relaxation 1
   ENCUT  =  520.0 eV  38.22 Ry    6.18 a.u.  18.80 18.80 39.54*2*pi/ulx,y,z
   ENINI  =  520.0     initial cutoff
   ENAUG  =  605.4 eV  augmentation charge cutoff
   NELM   =    200;   NELMIN=  2; NELMDL=  0     # of ELM steps 
   EDIFF  = 0.1E-05   stopping-criterion for ELM
   LREAL  =      T    real-space projection
   NLSPLINE    = F    spline interpolate recip. space projectors
   LCOMPAT=      F    compatible to vasp.4.4
   GGA_COMPAT  = T    GGA compatible to vasp.4.4-vasp.4.6
   LMAXPAW     = -100 max onsite density
   LMAXMIX     =    2 max onsite mixed and CHGCAR
   VOSKOWN=      0    Vosko Wilk Nusair interpolation
   ROPT   =   -0.00025  -0.00025  -0.00025
 Ionic relaxation
   EDIFFG = -.2E-01   stopping-criterion for IOM
   NSW    =      0    number of steps for IOM
   NBLOCK =      1;   KBLOCK =      1    inner block; outer block 
   IBRION =     -1    ionic relax: 0-MD 1-quasi-New 2-CG
   NFREE  =      0    steps in history (QN), initial steepest desc. (CG)
   ISIF   =      2    stress and relaxation
   IWAVPR =     10    prediction:  0-non 1-charg 2-wave 3-comb
   ISYM   =      0    0-nonsym 1-usesym 2-fastsym
   LCORR  =      T    Harris-Foulkes like correction to forces

   POTIM  = 0.5000    time-step for ionic-motion
   TEIN   =    0.0    initial temperature
   TEBEG  =    0.0;   TEEND  =   0.0 temperature during run
   SMASS  =  -3.00    Nose mass-parameter (am)
   estimated Nose-frequenzy (Omega)   =  0.10E-29 period in steps =****** mass=  -0.234E-26a.u.
   SCALEE = 1.0000    scale energy and forces
   NPACO  =    256;   APACO  = 16.0  distance and # of slots for P.C.
   PSTRESS=    0.0 pullay stress

  Mass of Ions in am
   POMASS =  55.85 58.69 16.00
  Ionic Valenz
   ZVAL   =   8.00 10.00  6.00
  Atomic Wigner-Seitz radii
   RWIGS  =  -1.00 -1.00 -1.00
  virtual crystal weights 
   VCA    =   1.00  1.00  1.00
   NELECT =     568.0000    total number of electrons
   NUPDOWN=      -1.0000    fix difference up-down

 DOS related values:
   EMIN   =  10.00;   EMAX   =-10.00  energy-range for DOS
   EFERMI =   0.00
   ISMEAR =    -5;   SIGMA  =   0.20  broadening in eV -4-tet -1-fermi 0-gaus

 Electronic relaxation 2 (details)
   IALGO  =     68    algorithm
   LDIAG  =      T    sub-space diagonalisation (order eigenvalues)
   LSUBROT=      F    optimize rotation matrix (better conditioning)
   TURBO    =      0    0=normal 1=particle mesh
   IRESTART =      0    0=no restart 2=restart with 2 vectors
   NREBOOT  =      0    no. of reboots
   NMIN     =      0    reboot dimension
   EREF     =   0.00    reference energy to select bands
   IMIX   =      4    mixing-type and parameters
     AMIX     =   0.40;   BMIX     =  1.00
     AMIX_MAG =   1.60;   BMIX_MAG =  1.00
     AMIN     =   0.10
     WC   =   100.;   INIMIX=   1;  MIXPRE=   1;  MAXMIX= -45

 Intra band minimization:
   WEIMIN = 0.0000     energy-eigenvalue tresh-hold
   EBREAK =  0.67E-09  absolut break condition
   DEPER  =   0.30     relativ break condition  

   TIME   =   0.40     timestep for ELM

  volume/ion in A,a.u.               =      27.69       186.88
  Fermi-wavevector in a.u.,A,eV,Ry     =   1.097914  2.074757 16.400676  1.205416
  Thomas-Fermi vector in A             =   2.234283
 
 Write flags
   LWAVE        =      F    write WAVECAR
   LDOWNSAMPLE  =      F    k-point downsampling of WAVECAR
   LCHARG       =      F    write CHGCAR
   LVTOT        =      F    write LOCPOT, total local potential
   LVHAR        =      F    write LOCPOT, Hartree potential only
   LELF         =      F    write electronic localiz. function (ELF)
   LORBIT       =     11    0 simple, 1 ext, 2 COOP (PROOUT), +10 PAW based schemes


 Dipole corrections
   LMONO  =      F    monopole corrections only (constant potential shift)
   LDIPOL =      T    correct potential (dipole corrections)
   IDIPOL =      3    1-x, 2-y, 3-z, 4-all directions 
   EPSILON=  1.0000000 bulk dielectric constant

 Exchange correlation treatment:
   GGA     =    --    GGA type
   LEXCH   =     8    internal setting for exchange type
   VOSKOWN=      0    Vosko Wilk Nusair interpolation
   LHFCALC =     F    Hartree Fock is set to
   LHFONE  =     F    Hartree Fock one center treatment
   AEXX    =    0.0000 exact exchange contribution

 Linear response parameters
   LEPSILON=     F    determine dielectric tensor
   LRPA    =     F    only Hartree local field effects (RPA)
   LNABLA  =     F    use nabla operator in PAW spheres
   LVEL    =     F    velocity operator in full k-point grid
   LINTERFAST=   F  fast interpolation
   KINTER  =     0    interpolate to denser k-point grid
   CSHIFT  =0.1000    complex shift for real part using Kramers Kronig
   OMEGAMAX=  -1.0    maximum frequency
   DEG_THRESHOLD= 0.2000000E-02 threshold for treating states as degnerate
   RTIME   =   -0.100 relaxation time in fs
  (WPLASMAI=    0.000 imaginary part of plasma frequency in eV, 0.658/RTIME)
   DFIELD  = 0.0000000 0.0000000 0.0000000 field for delta impulse in time
 
 Orbital magnetization related:
   ORBITALMAG=     F  switch on orbital magnetization
   LCHIMAG   =     F  perturbation theory with respect to B field
   DQ        =  0.001000  dq finite difference perturbation B field
   LLRAUG    =     F  two centre corrections for induced B field



--------------------------------------------------------------------------------------------------------


 Static calculation
 charge density and potential remain constant during run
 spin polarized calculation
 RMM-DIIS sequential band-by-band and
  variant of blocked Davidson during initial phase
 perform sub-space diagonalisation
    before iterative eigenvector-optimisation
 no mixing
 using additional bands           91
 real space projection scheme for non local part
 use partial core corrections
 calculate Harris-corrections to forces 
   (improved forces if not selfconsistent)
 use gradient corrections 
 WARNING: stress and forces are not correct
  (second derivative of E(xc) not defined)
 use of overlap-Matrix (Vanderbilt PP)
 Fermi weights with tetrahedron method with Bloechl corrections


--------------------------------------------------------------------------------------------------------


  energy-cutoff  :      520.00
  volume of cell :     1883.07
      direct lattice vectors                 reciprocal lattice vectors
    10.111630000  0.000000000  0.000000000     0.098896024  0.057097646  0.000000000
    -5.055815000  8.756928450  0.000000000     0.000000000  0.114195292  0.000000000
     0.000000000  0.000000000 21.266430000     0.000000000  0.000000000  0.047022467

  length of vectors
    10.111630000 10.111629997 21.266430000     0.114195292  0.114195292  0.047022467


 
 k-points in units of 2pi/SCALE and weight: read from INCAR                         
   0.00000000  0.00000000  0.00000000       0.031
   0.02472401  0.01427441  0.00000000       0.062
   0.04944801  0.02854882  0.00000000       0.031
   0.00000000  0.02854882  0.00000000       0.062
   0.02472401  0.04282323  0.00000000       0.062
   0.04944801  0.05709765  0.00000000       0.062
  -0.02472401  0.01427441  0.00000000       0.062
   0.00000000  0.05709765  0.00000000       0.031
   0.02472401  0.07137206  0.00000000       0.062
   0.04944801  0.08564647  0.00000000       0.031
   0.00000000  0.00000000  0.02351123       0.031
   0.02472401  0.01427441  0.02351123       0.062
   0.04944801  0.02854882  0.02351123       0.031
   0.00000000  0.02854882  0.02351123       0.062
   0.02472401  0.04282323  0.02351123       0.062
   0.04944801  0.05709765  0.02351123       0.062
  -0.02472401  0.01427441  0.02351123       0.062
   0.00000000  0.05709765  0.02351123       0.031
   0.02472401  0.07137206  0.02351123       0.062
   0.04944801  0.08564647  0.02351123       0.031
 
 k-points in reciprocal lattice and weights: read from INCAR                         
   0.00000000  0.00000000  0.00000000       0.031
   0.25000000  0.00000000  0.00000000       0.062
   0.50000000  0.00000000  0.00000000       0.031
   0.00000000  0.25000000  0.00000000       0.062
   0.25000000  0.25000000  0.00000000       0.062
   0.50000000  0.25000000  0.00000000       0.062
  -0.25000000  0.25000000  0.00000000       0.062
   0.00000000  0.50000000  0.00000000       0.031
   0.25000000  0.50000000  0.00000000       0.062
   0.50000000  0.50000000  0.00000000       0.031
   0.00000000  0.00000000  0.50000000       0.031
   0.25000000  0.00000000  0.50000000       0.062
   0.50000000  0.00000000  0.50000000       0.031
   0.00000000  0.25000000  0.50000000       0.062
   0.25000000  0.25000000  0.50000000       0.062
   0.50000000  0.25000000  0.50000000       0.062
  -0.25000000  0.25000000  0.50000000       0.062
   0.00000000  0.50000000  0.50000000       0.031
   0.25000000  0.50000000  0.50000000       0.062
   0.50000000  0.50000000  0.50000000       0.031
 
 position of ions in fractional coordinates (direct lattice) 
   0.00194700  0.99920000  0.09682900
   0.00057145  0.00279854  0.38101941
   0.49880600  0.99647600  0.09614500
   0.50366846  0.00094856  0.37904062
   0.74316000  0.99645900  0.09443100
   0.74928743  0.99552953  0.38767278
   0.24913600  0.25322600  0.09681000
   0.24930458  0.24716958  0.38493520
   0.08873200  0.16149400  0.19059200
   0.32962600  0.16609800  0.19506300
   0.16191999  0.07546522  0.29084686
   0.58333000  0.16550300  0.19443700
   0.41407151  0.08153169  0.28881979
   0.82651500  0.16651000  0.19326300
   0.66732042  0.08194422  0.28813485
   0.00320800  0.51090900  0.09451300
   0.00007916  0.50338867  0.37379617
   0.25586900  0.50577700  0.09734600
   0.24939770  0.49517629  0.38343564
   0.49960200  0.50304900  0.09754100
   0.49525601  0.49487790  0.37647219
   0.33859900  0.41583700  0.18939300
   0.75679100  0.50804300  0.09630900
   0.74506226  0.49101844  0.38663732
   0.58633600  0.42229400  0.19423600
   0.41613466  0.33564366  0.28648311
   0.82677100  0.41676200  0.19199500
   0.66819044  0.33187136  0.28970472
   0.99180600  0.74702800  0.09571300
   0.00256929  0.75403444  0.38597481
   0.25104600  0.74563900  0.09703600
   0.25138464  0.75410573  0.38560152
   0.08604600  0.67086900  0.19220200
   0.50153700  0.74905700  0.09752900
   0.50641264  0.75202949  0.38474539
   0.33005900  0.66135600  0.19018600
   0.16852968  0.58290745  0.28519633
   0.74777500  0.74863100  0.09404500
   0.74975303  0.74886019  0.38135015
   0.58008200  0.66096300  0.19152700
   0.83213700  0.66199500  0.19303500
   0.66527190  0.58523902  0.28565261
   0.90998478  0.58573125  0.28577466
   0.08603600  0.91635500  0.19371200
   0.32743000  0.91932200  0.19293700
   0.16068853  0.82602454  0.29095916
   0.66276400  0.83530487  0.28846853
   0.90641889  0.82607872  0.28758973
   0.24916500  0.99813100  0.09559800
   0.25157266  0.99794536  0.38845193
   0.00129700  0.24974200  0.09658600
   0.00513903  0.25362750  0.38182518
   0.49933100  0.25162700  0.09537300
   0.50233752  0.24944124  0.38536813
   0.74944200  0.25071300  0.09573100
   0.75134274  0.25040743  0.38484425
   0.91745006  0.08304213  0.28657806
   0.08260800  0.41708000  0.19225300
   0.16814711  0.33197598  0.28657796
   0.91528972  0.33184399  0.28518879
   0.41391799  0.58385252  0.28568832
   0.58190700  0.91526900  0.19241300
   0.41378285  0.83021570  0.28624379
   0.83399900  0.91457100  0.19240400
   0.82968062  0.66507873  0.43718727
   0.33178897  0.17303401  0.44016968
   0.33365724  0.66309547  0.43666761
   0.83831119  0.16295244  0.43736356
 
 position of ions in cartesian coordinates  (Angst):
  -5.03208300  8.74992291  2.05920715
  -0.00837064  0.02450662  8.10292251
   0.00574341  8.72606903  2.04466091
   5.08811334  0.00830645  8.06084071
   2.47664659  8.72592017  2.00821025
   2.54330412  8.71778084  8.24441600
   1.23890724  2.21748196  2.05880309
   1.27123200  2.16444634  8.18619748
   0.08074137  1.41419140  4.05321143
   2.49329539  1.45450830  4.14829364
   1.25573682  0.66084352  6.18527432
   5.06166458  1.44929793  4.13498085
   3.77472880  0.71396718  6.14216585
   7.51557011  1.45811616  4.11001406
   6.33340240  0.71757970  6.12759966
  -2.55062328  4.47399356  2.00995410
  -2.54423953  4.40813860  7.94931010
   0.03013771  4.42905300  2.07020189
   0.01829753  4.33622332  8.15430730
   2.50846789  4.40516410  2.07434885
   2.50583445  4.33361033  8.00621949
   1.32139286  3.64145486  4.02771298
   5.08381916  4.44889620  2.04814861
   5.05129557  4.29981331  8.22239548
   3.79377235  3.69799834  4.13070630
   2.51084751  2.93920752  6.09247294
   6.25293088  3.64955501  4.08304823
   5.07861427  2.90617376  6.16098525
   6.25193994  6.54167075  2.03547381
  -3.78627888  6.60302561  8.20830623
  -1.23132858  6.52950737  2.06360930
  -1.27071057  6.60364995  8.20036782
  -2.52172424  5.87475183  4.08745038
   1.28426296  6.55943855  2.07409365
   1.31853525  6.58546845  8.18216090
  -0.00625910  5.79144717  4.04457726
  -1.24296241  5.10447880  6.06510780
   3.77628428  6.55570810  2.00000141
   3.79512660  6.55771510  8.10995636
   2.52386790  5.78800570  4.07309554
   5.06733720  5.79704285  4.10516532
   3.76812304  5.12489625  6.07481124
   6.24008058  5.12920661  6.07740690
  -3.76295716  8.02445517  4.11956269
  -1.33707095  8.05043698  4.10308120
  -2.55140431  7.23343782  6.18766252
   2.47847749  7.31470497  6.13469577
   4.98887129  7.23391224  6.11600685
  -2.52690139  8.74056175  2.03302818
  -2.50161746  8.73893615  8.26098586
  -1.24953457  2.18697282  2.05403941
  -1.23032970  2.22099786  8.12005836
   3.77687076  2.20347964  2.02824323
   3.81832239  2.18433906  8.19540432
   6.31052166  2.19547580  2.03585661
   6.33128619  2.19279992  8.18426330
   8.85706992  0.72719396  6.09449220
  -1.27337779  3.65233972  4.08853497
   0.02183229  2.90708986  6.09449022
   7.57732913  2.90593406  6.06494736
   1.23353527  5.11275477  6.07557063
   1.25659754  8.01494515  4.09193760
  -0.01339793  7.27013952  6.08738351
   3.80918753  8.00883281  4.09174620
   5.02690841  5.82404683  9.29741249
   2.48009937  1.51524641  9.36083768
   0.02133057  5.80667957  9.28636115
   7.65283521  1.42696284  9.30116163
 


--------------------------------------------------------------------------------------------------------


 k-point  1 :   0.0000 0.0000 0.0000  plane waves:   50761
 k-point  2 :   0.2500 0.0000 0.0000  plane waves:   50693
 k-point  3 :   0.5000 0.0000 0.0000  plane waves:   50702
 k-point  4 :   0.0000 0.2500 0.0000  plane waves:   50693
 k-point  5 :   0.2500 0.2500 0.0000  plane waves:   50697
 k-point  6 :   0.5000 0.2500 0.0000  plane waves:   50697
 k-point  7 :  -0.2500 0.2500 0.0000  plane waves:   50693
 k-point  8 :   0.0000 0.5000 0.0000  plane waves:   50702
 k-point  9 :   0.2500 0.5000 0.0000  plane waves:   50697
 k-point 10 :   0.5000 0.5000 0.0000  plane waves:   50702
 k-point 11 :   0.0000 0.0000 0.5000  plane waves:   50672
 k-point 12 :   0.2500 0.0000 0.5000  plane waves:   50666
 k-point 13 :   0.5000 0.0000 0.5000  plane waves:   50696
 k-point 14 :   0.0000 0.2500 0.5000  plane waves:   50666
 k-point 15 :   0.2500 0.2500 0.5000  plane waves:   50720
 k-point 16 :   0.5000 0.2500 0.5000  plane waves:   50720
 k-point 17 :  -0.2500 0.2500 0.5000  plane waves:   50666
 k-point 18 :   0.0000 0.5000 0.5000  plane waves:   50696
 k-point 19 :   0.2500 0.5000 0.5000  plane waves:   50720
 k-point 20 :   0.5000 0.5000 0.5000  plane waves:   50696

 maximum and minimum number of plane-waves per node :      2141     2086

 maximum number of plane-waves:     50761
 maximum index in each direction: 
   IXMAX=   19   IYMAX=   18   IZMAX=   39
   IXMIN=  -19   IYMIN=  -19   IZMIN=  -40


 real space projection operators:
  total allocation   :      69687.52 KBytes
  max/ min on nodes  :       3473.12       2613.73


 parallel 3D FFT for wavefunctions:
    minimum data exchange during FFTs selected (reduces bandwidth)
 parallel 3D FFT for charge:
    minimum data exchange during FFTs selected (reduces bandwidth)


 total amount of memory used by VASP MPI-rank0   242498. kBytes
=======================================================================

   base      :      30000. kBytes
   nonlr-proj:      13830. kBytes
   fftplans  :       6403. kBytes
   grid      :      17692. kBytes
   one-center:         93. kBytes
   wavefun   :     174480. kBytes
 
     INWAV:  cpu time    0.0001: real time    0.0007
 initial charge density was supplied:
 number of electron     568.0000069 magnetization      87.0765730
 keeping initial charge density in first step


--------------------------------------------------------------------------------------------------------


 Maximum index for non-local projection operator          744
 Maximum index for augmentation-charges         1054 (set IRDMAX)


--------------------------------------------------------------------------------------------------------


 First call to EWALD:  gamma=   0.144
 Maximum number of real-space cells 4x 4x 2
 Maximum number of reciprocal cells 2x 2x 4

    FEWALD:  cpu time    0.0056: real time    0.0057


--------------------------------------- Iteration      1(   1)  ---------------------------------------


    POTLOK:  cpu time    0.4105: real time    0.4370
    SETDIJ:  cpu time    0.0259: real time    0.0476
     EDDAV:  cpu time  136.4907: real time  136.8184
 BZINTS: Fermi energy: 10.663959;568.000000 electrons
         Band energy:3542.463369;  BLOECHL correction: -0.020731
       DOS:  cpu time    0.2199: real time    0.2228
    --------------------------------------------
      LOOP:  cpu time  137.1470: real time  137.5258

 eigenvalue-minimisations  : 30000
 total energy-change (2. order) : 0.4740803E+04  (-0.2430489E+05)
 number of electron     568.0000069 magnetization      87.0765730
 augmentation part      568.0000069 magnetization      87.0765730

 DIPCOR: dipole corrections for dipol
 direction  3 min pos   234,
 dipolmoment           0.000000      0.000000      0.218727 electrons x Angstroem
 Tr[quadrupol]     -9876.498755

 energy correction for charged system         0.000000 eV
 dipol+quadrupol energy correction           -0.002299 eV
 added-field ion interaction         -5.169914 eV  (added to PSCEN)


 Free energy of the ion-electron system (eV)
  ---------------------------------------------------
  alpha Z        PSCENC =      1519.72606925
  Ewald energy   TEWEN  =    174786.09014659
  -Hartree energ DENC   =   -221868.50003956
  -exchange      EXHF   =         0.00000000
  -V(xc)+E(xc)   XCENC  =       800.71927484
  PAW double counting   =     53906.03760686   -55444.90882682
  entropy T*S    EENTRO =         0.00000000
  eigenvalues    EBANDS =      3542.46336869
  atomic energy  EATOM  =     47499.17533030
  Solvation  Ediel_sol  =         0.00000000
  ---------------------------------------------------
  free energy    TOTEN  =      4740.80293014 eV

  energy without entropy =     4740.80293014  energy(sigma->0) =     4740.80293014


--------------------------------------------------------------------------------------------------------




--------------------------------------- Iteration      1(   2)  ---------------------------------------


     EDDAV:  cpu time  134.9906: real time  135.0516
 BZINTS: Fermi energy:  0.951699;568.000000 electrons
         Band energy:***********;  BLOECHL correction: -0.005780
       DOS:  cpu time    0.2182: real time    0.2182
    --------------------------------------------
      LOOP:  cpu time  135.2088: real time  135.2698

 eigenvalue-minimisations  : 30009
 total energy-change (2. order) :-0.4679494E+04  (-0.4446604E+04)
 number of electron     568.0000069 magnetization      87.0765730
 augmentation part      568.0000069 magnetization      87.0765730

 DIPCOR: dipole corrections for dipol
 direction  3 min pos   234,
 dipolmoment           0.000000      0.000000      0.218727 electrons x Angstroem
 Tr[quadrupol]     -9876.498755

 energy correction for charged system         0.000000 eV
 dipol+quadrupol energy correction           -0.002299 eV
 added-field ion interaction         -5.169914 eV  (added to PSCEN)


 Free energy of the ion-electron system (eV)
  ---------------------------------------------------
  alpha Z        PSCENC =      1519.72606925
  Ewald energy   TEWEN  =    174786.09014659
  -Hartree energ DENC   =   -221868.50003956
  -exchange      EXHF   =         0.00000000
  -V(xc)+E(xc)   XCENC  =       800.71927484
  PAW double counting   =     53906.03760686   -55444.90882682
  entropy T*S    EENTRO =         0.00000000
  eigenvalues    EBANDS =     -1137.03032786
  atomic energy  EATOM  =     47499.17533030
  Solvation  Ediel_sol  =         0.00000000
  ---------------------------------------------------
  free energy    TOTEN  =        61.30923359 eV

  energy without entropy =       61.30923359  energy(sigma->0) =       61.30923359


--------------------------------------------------------------------------------------------------------




--------------------------------------- Iteration      1(   3)  ---------------------------------------


     EDDAV:  cpu time  142.0485: real time  142.0918
 BZINTS: Fermi energy: -0.130928;568.000000 electrons
         Band energy:***********;  BLOECHL correction: -0.006164
       DOS:  cpu time    0.2087: real time    0.2088
    --------------------------------------------
      LOOP:  cpu time  142.2573: real time  142.3005

 eigenvalue-minimisations  : 32082
 total energy-change (2. order) :-0.4710793E+03  (-0.4121281E+03)
 number of electron     568.0000069 magnetization      87.0765730
 augmentation part      568.0000069 magnetization      87.0765730

 DIPCOR: dipole corrections for dipol
 direction  3 min pos   234,
 dipolmoment           0.000000      0.000000      0.218727 electrons x Angstroem
 Tr[quadrupol]     -9876.498755

 energy correction for charged system         0.000000 eV
 dipol+quadrupol energy correction           -0.002299 eV
 added-field ion interaction         -5.169914 eV  (added to PSCEN)


 Free energy of the ion-electron system (eV)
  ---------------------------------------------------
  alpha Z        PSCENC =      1519.72606925
  Ewald energy   TEWEN  =    174786.09014659
  -Hartree energ DENC   =   -221868.50003956
  -exchange      EXHF   =         0.00000000
  -V(xc)+E(xc)   XCENC  =       800.71927484
  PAW double counting   =     53906.03760686   -55444.90882682
  entropy T*S    EENTRO =         0.00000000
  eigenvalues    EBANDS =     -1608.10958018
  atomic energy  EATOM  =     47499.17533030
  Solvation  Ediel_sol  =         0.00000000
  ---------------------------------------------------
  free energy    TOTEN  =      -409.77001873 eV

  energy without entropy =     -409.77001873  energy(sigma->0) =     -409.77001873


--------------------------------------------------------------------------------------------------------




--------------------------------------- Iteration      1(   4)  ---------------------------------------


     EDDAV:  cpu time  223.3146: real time  223.3764
 BZINTS: Fermi energy: -0.274875;568.000000 electrons
         Band energy:***********;  BLOECHL correction: -0.004698
       DOS:  cpu time    0.2024: real time    0.2024
    --------------------------------------------
      LOOP:  cpu time  223.5169: real time  223.5788

 eigenvalue-minimisations  : 56292
 total energy-change (2. order) :-0.7013267E+02  (-0.6444348E+02)
 number of electron     568.0000069 magnetization      87.0765730
 augmentation part      568.0000069 magnetization      87.0765730

 DIPCOR: dipole corrections for dipol
 direction  3 min pos   234,
 dipolmoment           0.000000      0.000000      0.218727 electrons x Angstroem
 Tr[quadrupol]     -9876.498755

 energy correction for charged system         0.000000 eV
 dipol+quadrupol energy correction           -0.002299 eV
 added-field ion interaction         -5.169914 eV  (added to PSCEN)


 Free energy of the ion-electron system (eV)
  ---------------------------------------------------
  alpha Z        PSCENC =      1519.72606925
  Ewald energy   TEWEN  =    174786.09014659
  -Hartree energ DENC   =   -221868.50003956
  -exchange      EXHF   =         0.00000000
  -V(xc)+E(xc)   XCENC  =       800.71927484
  PAW double counting   =     53906.03760686   -55444.90882682
  entropy T*S    EENTRO =         0.00000000
  eigenvalues    EBANDS =     -1678.24225296
  atomic energy  EATOM  =     47499.17533030
  Solvation  Ediel_sol  =         0.00000000
  ---------------------------------------------------
  free energy    TOTEN  =      -479.90269151 eV

  energy without entropy =     -479.90269151  energy(sigma->0) =     -479.90269151


--------------------------------------------------------------------------------------------------------




--------------------------------------- Iteration      1(   5)  ---------------------------------------


     EDDAV:  cpu time  177.0235: real time  177.0769
 BZINTS: Fermi energy: -0.287483;568.000000 electrons
         Band energy:***********;  BLOECHL correction: -0.003104
       DOS:  cpu time    0.2084: real time    0.2084
    --------------------------------------------
      LOOP:  cpu time  177.2319: real time  177.2854

 eigenvalue-minimisations  : 42567
 total energy-change (2. order) :-0.4776949E+01  (-0.4689143E+01)
 number of electron     568.0000069 magnetization      87.0765730
 augmentation part      568.0000069 magnetization      87.0765730

 DIPCOR: dipole corrections for dipol
 direction  3 min pos   234,
 dipolmoment           0.000000      0.000000      0.218727 electrons x Angstroem
 Tr[quadrupol]     -9876.498755

 energy correction for charged system         0.000000 eV
 dipol+quadrupol energy correction           -0.002299 eV
 added-field ion interaction         -5.169914 eV  (added to PSCEN)


 Free energy of the ion-electron system (eV)
  ---------------------------------------------------
  alpha Z        PSCENC =      1519.72606925
  Ewald energy   TEWEN  =    174786.09014659
  -Hartree energ DENC   =   -221868.50003956
  -exchange      EXHF   =         0.00000000
  -V(xc)+E(xc)   XCENC  =       800.71927484
  PAW double counting   =     53906.03760686   -55444.90882682
  entropy T*S    EENTRO =         0.00000000
  eigenvalues    EBANDS =     -1683.01920210
  atomic energy  EATOM  =     47499.17533030
  Solvation  Ediel_sol  =         0.00000000
  ---------------------------------------------------
  free energy    TOTEN  =      -484.67964065 eV

  energy without entropy =     -484.67964065  energy(sigma->0) =     -484.67964065


--------------------------------------------------------------------------------------------------------




--------------------------------------- Iteration      1(   6)  ---------------------------------------


    EDDIAG:  cpu time   20.4677: real time   20.4856
  RMM-DIIS:  cpu time   74.7414: real time   74.7642
    ORTHCH:  cpu time    5.5154: real time    5.5167
 BZINTS: Fermi energy: -0.287783;568.000000 electrons
         Band energy:***********;  BLOECHL correction: -0.003060
       DOS:  cpu time    0.2105: real time    0.2106
    --------------------------------------------
      LOOP:  cpu time  100.9350: real time  100.9770

 eigenvalue-minimisations  : 30651
 total energy-change (2. order) :-0.8832615E-01  (-0.8834720E-01)
 number of electron     568.0000069 magnetization      87.0765730
 augmentation part      568.0000069 magnetization      87.0765730

 DIPCOR: dipole corrections for dipol
 direction  3 min pos   234,
 dipolmoment           0.000000      0.000000      0.218727 electrons x Angstroem
 Tr[quadrupol]     -9876.498755

 energy correction for charged system         0.000000 eV
 dipol+quadrupol energy correction           -0.002299 eV
 added-field ion interaction         -5.169914 eV  (added to PSCEN)


 Free energy of the ion-electron system (eV)
  ---------------------------------------------------
  alpha Z        PSCENC =      1519.72606925
  Ewald energy   TEWEN  =    174786.09014659
  -Hartree energ DENC   =   -221868.50003956
  -exchange      EXHF   =         0.00000000
  -V(xc)+E(xc)   XCENC  =       800.71927484
  PAW double counting   =     53906.03760686   -55444.90882682
  entropy T*S    EENTRO =         0.00000000
  eigenvalues    EBANDS =     -1683.10752824
  atomic energy  EATOM  =     47499.17533030
  Solvation  Ediel_sol  =         0.00000000
  ---------------------------------------------------
  free energy    TOTEN  =      -484.76796679 eV

  energy without entropy =     -484.76796679  energy(sigma->0) =     -484.76796679


--------------------------------------------------------------------------------------------------------




--------------------------------------- Iteration      1(   7)  ---------------------------------------


    EDDIAG:  cpu time   20.4516: real time   20.4684
  RMM-DIIS:  cpu time  112.0714: real time  112.1062
    ORTHCH:  cpu time    5.5097: real time    5.5107
 BZINTS: Fermi energy: -0.287892;568.000000 electrons
         Band energy:***********;  BLOECHL correction: -0.003040
       DOS:  cpu time    0.2063: real time    0.2063
    --------------------------------------------
      LOOP:  cpu time  138.2390: real time  138.2917

 eigenvalue-minimisations  : 46998
 total energy-change (2. order) :-0.1977325E-01  (-0.1990071E-01)
 number of electron     568.0000069 magnetization      87.0765730
 augmentation part      568.0000069 magnetization      87.0765730

 DIPCOR: dipole corrections for dipol
 direction  3 min pos   234,
 dipolmoment           0.000000      0.000000      0.218727 electrons x Angstroem
 Tr[quadrupol]     -9876.498755

 energy correction for charged system         0.000000 eV
 dipol+quadrupol energy correction           -0.002299 eV
 added-field ion interaction         -5.169914 eV  (added to PSCEN)


 Free energy of the ion-electron system (eV)
  ---------------------------------------------------
  alpha Z        PSCENC =      1519.72606925
  Ewald energy   TEWEN  =    174786.09014659
  -Hartree energ DENC   =   -221868.50003956
  -exchange      EXHF   =         0.00000000
  -V(xc)+E(xc)   XCENC  =       800.71927484
  PAW double counting   =     53906.03760686   -55444.90882682
  entropy T*S    EENTRO =         0.00000000
  eigenvalues    EBANDS =     -1683.12730149
  atomic energy  EATOM  =     47499.17533030
  Solvation  Ediel_sol  =         0.00000000
  ---------------------------------------------------
  free energy    TOTEN  =      -484.78774004 eV

  energy without entropy =     -484.78774004  energy(sigma->0) =     -484.78774004


--------------------------------------------------------------------------------------------------------




--------------------------------------- Iteration      1(   8)  ---------------------------------------


    EDDIAG:  cpu time   20.4604: real time   20.4646
  RMM-DIIS:  cpu time  131.2397: real time  131.2812
    ORTHCH:  cpu time    5.5059: real time    5.5068
 BZINTS: Fermi energy: -0.287893;568.000000 electrons
         Band energy:***********;  BLOECHL correction: -0.003039
       DOS:  cpu time    0.2008: real time    0.2008
    --------------------------------------------
      LOOP:  cpu time  157.4068: real time  157.4534

 eigenvalue-minimisations  : 54857
 total energy-change (2. order) : 0.5666657E-03  (-0.1175802E-02)
 number of electron     568.0000069 magnetization      87.0765730
 augmentation part      568.0000069 magnetization      87.0765730

 DIPCOR: dipole corrections for dipol
 direction  3 min pos   234,
 dipolmoment           0.000000      0.000000      0.218727 electrons x Angstroem
 Tr[quadrupol]     -9876.498755

 energy correction for charged system         0.000000 eV
 dipol+quadrupol energy correction           -0.002299 eV
 added-field ion interaction         -5.169914 eV  (added to PSCEN)


 Free energy of the ion-electron system (eV)
  ---------------------------------------------------
  alpha Z        PSCENC =      1519.72606925
  Ewald energy   TEWEN  =    174786.09014659
  -Hartree energ DENC   =   -221868.50003956
  -exchange      EXHF   =         0.00000000
  -V(xc)+E(xc)   XCENC  =       800.71927484
  PAW double counting   =     53906.03760686   -55444.90882682
  entropy T*S    EENTRO =         0.00000000
  eigenvalues    EBANDS =     -1683.12673483
  atomic energy  EATOM  =     47499.17533030
  Solvation  Ediel_sol  =         0.00000000
  ---------------------------------------------------
  free energy    TOTEN  =      -484.78717338 eV

  energy without entropy =     -484.78717338  energy(sigma->0) =     -484.78717338


--------------------------------------------------------------------------------------------------------




--------------------------------------- Iteration      1(   9)  ---------------------------------------


    EDDIAG:  cpu time   20.4413: real time   20.4527
  RMM-DIIS:  cpu time  130.0147: real time  130.0530
    ORTHCH:  cpu time    5.5121: real time    5.5130
 BZINTS: Fermi energy: -0.287894;568.000000 electrons
         Band energy:***********;  BLOECHL correction: -0.003039
       DOS:  cpu time    0.2097: real time    0.2098
    --------------------------------------------
      LOOP:  cpu time  156.1777: real time  156.2285

 eigenvalue-minimisations  : 54399
 total energy-change (2. order) :-0.1648123E-03  (-0.2914170E-03)
 number of electron     568.0000069 magnetization      87.0765730
 augmentation part      568.0000069 magnetization      87.0765730

 DIPCOR: dipole corrections for dipol
 direction  3 min pos   234,
 dipolmoment           0.000000      0.000000      0.218727 electrons x Angstroem
 Tr[quadrupol]     -9876.498755

 energy correction for charged system         0.000000 eV
 dipol+quadrupol energy correction           -0.002299 eV
 added-field ion interaction         -5.169914 eV  (added to PSCEN)


 Free energy of the ion-electron system (eV)
  ---------------------------------------------------
  alpha Z        PSCENC =      1519.72606925
  Ewald energy   TEWEN  =    174786.09014659
  -Hartree energ DENC   =   -221868.50003956
  -exchange      EXHF   =         0.00000000
  -V(xc)+E(xc)   XCENC  =       800.71927484
  PAW double counting   =     53906.03760686   -55444.90882682
  entropy T*S    EENTRO =         0.00000000
  eigenvalues    EBANDS =     -1683.12689964
  atomic energy  EATOM  =     47499.17533030
  Solvation  Ediel_sol  =         0.00000000
  ---------------------------------------------------
  free energy    TOTEN  =      -484.78733819 eV

  energy without entropy =     -484.78733819  energy(sigma->0) =     -484.78733819


--------------------------------------------------------------------------------------------------------




--------------------------------------- Iteration      1(  10)  ---------------------------------------


    EDDIAG:  cpu time   20.4601: real time   20.4756
  RMM-DIIS:  cpu time  103.2306: real time  103.2605
    ORTHCH:  cpu time    5.5141: real time    5.5151
 BZINTS: Fermi energy: -0.287894;568.000000 electrons
         Band energy:***********;  BLOECHL correction: -0.003039
       DOS:  cpu time    0.2041: real time    0.2042
    --------------------------------------------
      LOOP:  cpu time  129.4090: real time  129.4554

 eigenvalue-minimisations  : 42847
 total energy-change (2. order) :-0.1143973E-04  (-0.5904851E-04)
 number of electron     568.0000069 magnetization      87.0765730
 augmentation part      568.0000069 magnetization      87.0765730

 DIPCOR: dipole corrections for dipol
 direction  3 min pos   234,
 dipolmoment           0.000000      0.000000      0.218727 electrons x Angstroem
 Tr[quadrupol]     -9876.498755

 energy correction for charged system         0.000000 eV
 dipol+quadrupol energy correction           -0.002299 eV
 added-field ion interaction         -5.169914 eV  (added to PSCEN)


 Free energy of the ion-electron system (eV)
  ---------------------------------------------------
  alpha Z        PSCENC =      1519.72606925
  Ewald energy   TEWEN  =    174786.09014659
  -Hartree energ DENC   =   -221868.50003956
  -exchange      EXHF   =         0.00000000
  -V(xc)+E(xc)   XCENC  =       800.71927484
  PAW double counting   =     53906.03760686   -55444.90882682
  entropy T*S    EENTRO =         0.00000000
  eigenvalues    EBANDS =     -1683.12691108
  atomic energy  EATOM  =     47499.17533030
  Solvation  Ediel_sol  =         0.00000000
  ---------------------------------------------------
  free energy    TOTEN  =      -484.78734963 eV

  energy without entropy =     -484.78734963  energy(sigma->0) =     -484.78734963


--------------------------------------------------------------------------------------------------------




--------------------------------------- Iteration      1(  11)  ---------------------------------------


    EDDIAG:  cpu time   20.4381: real time   20.4537
  RMM-DIIS:  cpu time   82.0897: real time   82.1110
    ORTHCH:  cpu time    5.5055: real time    5.5064
 BZINTS: Fermi energy: -0.287894;568.000000 electrons
         Band energy:***********;  BLOECHL correction: -0.003039
       DOS:  cpu time    0.2091: real time    0.2092
    --------------------------------------------
      LOOP:  cpu time  108.2424: real time  108.2803

 eigenvalue-minimisations  : 33568
 total energy-change (2. order) :-0.4877918E-05  (-0.1845189E-04)
 number of electron     568.0000069 magnetization      87.0765730
 augmentation part      568.0000069 magnetization      87.0765730

 DIPCOR: dipole corrections for dipol
 direction  3 min pos   234,
 dipolmoment           0.000000      0.000000      0.218727 electrons x Angstroem
 Tr[quadrupol]     -9876.498755

 energy correction for charged system         0.000000 eV
 dipol+quadrupol energy correction           -0.002299 eV
 added-field ion interaction         -5.169914 eV  (added to PSCEN)


 Free energy of the ion-electron system (eV)
  ---------------------------------------------------
  alpha Z        PSCENC =      1519.72606925
  Ewald energy   TEWEN  =    174786.09014659
  -Hartree energ DENC   =   -221868.50003956
  -exchange      EXHF   =         0.00000000
  -V(xc)+E(xc)   XCENC  =       800.71927484
  PAW double counting   =     53906.03760686   -55444.90882682
  entropy T*S    EENTRO =         0.00000000
  eigenvalues    EBANDS =     -1683.12691596
  atomic energy  EATOM  =     47499.17533030
  Solvation  Ediel_sol  =         0.00000000
  ---------------------------------------------------
  free energy    TOTEN  =      -484.78735451 eV

  energy without entropy =     -484.78735451  energy(sigma->0) =     -484.78735451


--------------------------------------------------------------------------------------------------------




--------------------------------------- Iteration      1(  12)  ---------------------------------------


    EDDIAG:  cpu time   20.4410: real time   20.4557
  RMM-DIIS:  cpu time   69.1837: real time   69.2056
    ORTHCH:  cpu time    5.5109: real time    5.5118
 BZINTS: Fermi energy: -0.287894;568.000000 electrons
         Band energy:***********;  BLOECHL correction: -0.003039
       DOS:  cpu time    0.1854: real time    0.1854
    --------------------------------------------
      LOOP:  cpu time   95.3211: real time   95.3586

 eigenvalue-minimisations  : 27875
 total energy-change (2. order) :-0.1194130E-05  (-0.5823599E-05)
 number of electron     568.0000069 magnetization      87.0765730
 augmentation part      568.0000069 magnetization      87.0765730

 DIPCOR: dipole corrections for dipol
 direction  3 min pos   234,
 dipolmoment           0.000000      0.000000      0.218727 electrons x Angstroem
 Tr[quadrupol]     -9876.498755

 energy correction for charged system         0.000000 eV
 dipol+quadrupol energy correction           -0.002299 eV
 added-field ion interaction         -5.169914 eV  (added to PSCEN)


 Free energy of the ion-electron system (eV)
  ---------------------------------------------------
  alpha Z        PSCENC =      1519.72606925
  Ewald energy   TEWEN  =    174786.09014659
  -Hartree energ DENC   =   -221868.50003956
  -exchange      EXHF   =         0.00000000
  -V(xc)+E(xc)   XCENC  =       800.71927484
  PAW double counting   =     53906.03760686   -55444.90882682
  entropy T*S    EENTRO =         0.00000000
  eigenvalues    EBANDS =     -1683.12691715
  atomic energy  EATOM  =     47499.17533030
  Solvation  Ediel_sol  =         0.00000000
  ---------------------------------------------------
  free energy    TOTEN  =      -484.78735570 eV

  energy without entropy =     -484.78735570  energy(sigma->0) =     -484.78735570


--------------------------------------------------------------------------------------------------------




--------------------------------------- Iteration      1(  13)  ---------------------------------------


    EDDIAG:  cpu time   20.4607: real time   20.4755
  RMM-DIIS:  cpu time   63.6986: real time   63.7146
    ORTHCH:  cpu time    5.5139: real time    5.5147
 BZINTS: Fermi energy: -0.287894;568.000000 electrons
         Band energy:***********;  BLOECHL correction: -0.003039
       DOS:  cpu time    0.1844: real time    0.1845
    --------------------------------------------
      LOOP:  cpu time   89.8586: real time   89.8893

 eigenvalue-minimisations  : 25485
 total energy-change (2. order) :-0.2060842E-06  (-0.1914852E-05)
 number of electron     568.0000069 magnetization      87.0765730
 augmentation part      568.0000069 magnetization      87.0765730

 DIPCOR: dipole corrections for dipol
 direction  3 min pos   234,
 dipolmoment           0.000000      0.000000      0.218727 electrons x Angstroem
 Tr[quadrupol]     -9876.498755

 energy correction for charged system         0.000000 eV
 dipol+quadrupol energy correction           -0.002299 eV
 added-field ion interaction         -5.169914 eV  (added to PSCEN)


 Free energy of the ion-electron system (eV)
  ---------------------------------------------------
  alpha Z        PSCENC =      1519.72606925
  Ewald energy   TEWEN  =    174786.09014659
  -Hartree energ DENC   =   -221868.50003956
  -exchange      EXHF   =         0.00000000
  -V(xc)+E(xc)   XCENC  =       800.71927484
  PAW double counting   =     53906.03760686   -55444.90882682
  entropy T*S    EENTRO =         0.00000000
  eigenvalues    EBANDS =     -1683.12691736
  atomic energy  EATOM  =     47499.17533030
  Solvation  Ediel_sol  =         0.00000000
  ---------------------------------------------------
  free energy    TOTEN  =      -484.78735591 eV

  energy without entropy =     -484.78735591  energy(sigma->0) =     -484.78735591


--------------------------------------------------------------------------------------------------------




--------------------------------------- Iteration      1(  14)  ---------------------------------------


    EDDIAG:  cpu time   20.4473: real time   20.4635
  RMM-DIIS:  cpu time   58.8973: real time   58.9144
    ORTHCH:  cpu time    5.5115: real time    5.5125
 BZINTS: Fermi energy: -0.287894;568.000000 electrons
         Band energy:***********;  BLOECHL correction: -0.003039
       DOS:  cpu time    0.1950: real time    0.1950
    --------------------------------------------
      LOOP:  cpu time   85.0502: real time   85.0854

 eigenvalue-minimisations  : 23213
 total energy-change (2. order) :-0.5774200E-07  (-0.6867653E-06)
 number of electron     568.0000069 magnetization      87.0765730
 augmentation part      568.0000069 magnetization      87.0765730

 DIPCOR: dipole corrections for dipol
 direction  3 min pos   234,
 dipolmoment           0.000000      0.000000      0.218727 electrons x Angstroem
 Tr[quadrupol]     -9876.498755

 energy correction for charged system         0.000000 eV
 dipol+quadrupol energy correction           -0.002299 eV
 added-field ion interaction         -5.169914 eV  (added to PSCEN)


 Free energy of the ion-electron system (eV)
  ---------------------------------------------------
  alpha Z        PSCENC =      1519.72606925
  Ewald energy   TEWEN  =    174786.09014659
  -Hartree energ DENC   =   -221868.50003956
  -exchange      EXHF   =         0.00000000
  -V(xc)+E(xc)   XCENC  =       800.71927484
  PAW double counting   =     53906.03760686   -55444.90882682
  entropy T*S    EENTRO =         0.00000000
  eigenvalues    EBANDS =     -1683.12691742
  atomic energy  EATOM  =     47499.17533030
  Solvation  Ediel_sol  =         0.00000000
  ---------------------------------------------------
  free energy    TOTEN  =      -484.78735596 eV

  energy without entropy =     -484.78735596  energy(sigma->0) =     -484.78735596


--------------------------------------------------------------------------------------------------------




 average (electrostatic) potential at core
  the test charge radii are     1.0103  0.9791  0.7215
  (the norm of the test charge is              1.0000)
       1 -49.5866       2 -49.7346       3 -49.7325       4 -49.7586       5 -49.6447
       6 -49.8309       7 -49.5804       8 -49.7573       9 -49.5990      10 -49.6266
      11 -49.5976      12 -49.9910      13 -49.5949      14 -49.7885      15 -49.6336
      16 -49.7097      17 -49.7515      18 -49.5959      19 -49.8745      20 -49.6165
      21 -49.7343      22 -49.6329      23 -49.3721      24 -49.9201      25 -49.9230
      26 -49.6323      27 -49.6915      28 -49.7177      29 -49.5534      30 -49.8504
      31 -49.5732      32 -49.8409      33 -50.0475      34 -49.5611      35 -49.8221
      36 -50.0304      37 -49.7825      38 -49.5999      39 -50.0378      40 -49.8908
      41 -49.7860      42 -49.8111      43 -49.6294      44 -49.5747      45 -49.6277
      46 -49.5561      47 -49.8447      48 -49.9983      49 -91.4404      50 -91.7459
      51 -91.4200      52 -91.7080      53 -91.3285      54 -91.7234      55 -91.3956
      56 -91.6722      57 -91.6872      58 -91.6399      59 -91.6801      60 -91.7575
      61 -91.7404      62 -91.7905      63 -91.7055      64 -91.6787      65 -76.8384
      66 -76.5445      67 -76.7887      68 -76.5762
 
 
 
 E-fermi :  -0.2879     XC(G=0):  -6.0540     alpha+bet : -5.6412


 spin component 1

 k-point     1 :       0.0000    0.0000    0.0000
  band No.  band energies     occupation 
      1     -19.6419      1.00000
      2     -19.6246      1.00000
      3     -19.3343      1.00000
      4     -19.3025      1.00000
      5      -8.5553      1.00000
      6      -7.2557      1.00000
      7      -6.9172      1.00000
      8      -6.8721      1.00000
      9      -6.8529      1.00000
     10      -6.7518      1.00000
     11      -6.7106      1.00000
     12      -6.6568      1.00000
     13      -6.3057      1.00000
     14      -6.2838      1.00000
     15      -6.2145      1.00000
     16      -6.1762      1.00000
     17      -6.1551      1.00000
     18      -6.0974      1.00000
     19      -6.0260      1.00000
     20      -5.9349      1.00000
     21      -5.9188      1.00000
     22      -5.9012      1.00000
     23      -5.8024      1.00000
     24      -5.7730      1.00000
     25      -5.5369      1.00000
     26      -5.4543      1.00000
     27      -5.4169      1.00000
     28      -5.4092      1.00000
     29      -5.2991      1.00000
     30      -5.2745      1.00000
     31      -5.2429      1.00000
     32      -5.1537      1.00000
     33      -5.0972      1.00000
     34      -5.0144      1.00000
     35      -4.9888      1.00000
     36      -4.9395      1.00000
     37      -4.9335      1.00000
     38      -4.8558      1.00000
     39      -4.6427      1.00000
     40      -4.6239      1.00000
     41      -4.6117      1.00000
     42      -4.6086      1.00000
     43      -4.5915      1.00000
     44      -4.5704      1.00000
     45      -4.5632      1.00000
     46      -4.5417      1.00000
     47      -4.5398      1.00000
     48      -4.5205      1.00000
     49      -4.5156      1.00000
     50      -4.4845      1.00000
     51      -4.4710      1.00000
     52      -4.4563      1.00000
     53      -4.4488      1.00000
     54      -4.4443      1.00000
     55      -4.4333      1.00000
     56      -4.4119      1.00000
     57      -4.3977      1.00000
     58      -4.3893      1.00000
     59      -4.3740      1.00000
     60      -4.3713      1.00000
     61      -4.3504      1.00000
     62      -4.3273      1.00000
[...]
   -.696E+01 -.630E+01 0.209E+04   0.670E+01 0.579E+01 -.209E+04   0.360E+00 0.312E+00 -.194E+01   0.264E+00 0.458E+00 -.487E+00
   -.725E+02 -.173E+02 -.189E+04   0.745E+02 0.178E+02 0.189E+04   -.219E+01 -.682E+00 0.242E+01   0.104E+00 0.201E+00 0.385E-01
   0.121E+02 -.718E+01 0.210E+04   -.124E+02 0.698E+01 -.210E+04   -.299E+00 0.436E+00 -.163E+01   0.161E+00 0.136E+00 -.223E+00
   0.930E+02 -.161E+02 -.191E+04   -.949E+02 0.166E+02 0.191E+04   0.195E+01 -.600E+00 0.232E+01   -.599E-01 0.945E-01 -.232E+00
   0.331E+02 -.243E+02 0.796E+03   -.336E+02 0.241E+02 -.794E+03   0.556E-01 -.409E+00 -.570E+00   0.531E+00 0.165E+00 -.906E+00
   0.108E+01 0.980E+01 0.212E+04   -.799E+00 -.966E+01 -.212E+04   -.146E-01 -.148E+00 -.553E+00   -.190E+00 0.177E+00 -.257E+00
   -.970E+02 -.379E+02 -.192E+04   0.986E+02 0.393E+02 0.192E+04   -.152E+01 -.148E+01 0.212E+01   -.108E+00 0.431E-01 -.181E+00
   0.189E+02 -.264E+02 0.856E+03   -.188E+02 0.266E+02 -.854E+03   -.581E-01 0.135E+00 -.454E+00   -.904E-01 0.332E-01 -.705E+00
   0.547E+02 -.588E+02 -.537E+03   -.553E+02 0.591E+02 0.538E+03   0.181E+00 -.199E+00 -.158E+00   0.367E+00 -.153E-01 -.797E+00
   -.799E+01 0.775E+01 0.213E+04   0.820E+01 -.783E+01 -.213E+04   0.130E-01 -.179E+00 -.183E+01   -.203E+00 0.393E+00 -.460E+00
   0.762E+02 -.269E+02 -.185E+04   -.782E+02 0.277E+02 0.185E+04   0.192E+01 -.110E+01 0.125E+01   0.778E-01 0.192E+00 0.149E+00
   -.355E+02 0.480E+01 0.824E+03   0.363E+02 -.466E+01 -.822E+03   -.541E-01 0.198E-01 -.655E+00   -.533E+00 0.740E-01 -.993E+00
   -.144E+02 -.791E+01 0.792E+03   0.144E+02 0.771E+01 -.792E+03   -.182E+00 -.175E+00 0.295E+00   0.927E-01 0.455E+00 -.784E+00
   -.318E+02 0.735E+01 -.539E+03   0.322E+02 -.677E+01 0.539E+03   -.151E+00 -.336E+00 0.487E+00   -.248E+00 -.182E+00 -.481E+00
   0.104E+02 -.333E+02 -.530E+03   -.106E+02 0.332E+02 0.530E+03   -.202E-01 0.206E+00 0.159E+00   0.299E+00 -.765E-01 -.497E+00
   -.115E+02 0.324E+02 0.756E+03   0.110E+02 -.327E+02 -.755E+03   -.270E+00 -.585E+00 -.578E-01   0.251E+00 0.259E+00 -.891E+00
   0.185E+02 0.210E+01 0.781E+03   -.186E+02 -.240E+01 -.780E+03   0.653E+00 -.234E+00 -.349E-01   0.202E+00 0.112E+00 -.917E+00
   0.304E+02 0.666E+01 -.576E+03   -.305E+02 -.659E+01 0.577E+03   -.246E+00 -.226E+00 -.342E+00   0.278E+00 0.190E+00 -.660E+00
   -.352E+02 0.300E+02 -.595E+03   0.352E+02 -.302E+02 0.596E+03   0.258E+00 -.159E+00 -.706E+00   -.279E+00 0.223E+00 -.660E+00
   -.444E+02 0.254E+02 -.559E+03   0.442E+02 -.263E+02 0.559E+03   0.116E+00 0.418E+00 0.239E+00   0.101E+00 0.445E+00 -.526E+00
   0.102E+02 0.302E+02 0.262E+04   -.105E+02 -.304E+02 -.261E+04   0.148E+00 0.442E+00 -.109E+01   0.239E+00 -.795E-01 -.256E+00
   0.100E+02 0.177E+03 -.239E+04   -.100E+02 -.180E+03 0.238E+04   0.396E-01 0.289E+01 0.136E+01   -.213E-01 0.113E+00 -.185E+00
   -.126E+02 0.351E+01 0.264E+04   0.127E+02 -.379E+01 -.264E+04   -.497E+00 0.260E+00 -.802E+00   0.130E+00 0.144E-01 -.312E+00
   -.120E+03 -.793E+02 -.239E+04   0.123E+03 0.809E+02 0.239E+04   -.234E+01 -.154E+01 0.622E+00   0.736E-01 -.786E-01 -.309E+00
   0.147E+02 -.278E+02 0.260E+04   -.144E+02 0.288E+02 -.260E+04   0.285E-01 -.152E+00 -.111E+01   -.191E+00 -.665E+00 -.321E+00
   -.912E+02 -.902E+02 -.234E+04   0.935E+02 0.917E+02 0.234E+04   -.228E+01 -.134E+01 0.110E+01   0.726E-02 -.163E+00 -.216E+00
   0.105E+02 -.177E+02 0.263E+04   -.106E+02 0.186E+02 -.263E+04   -.355E-01 -.141E+00 -.137E+01   -.136E-01 -.606E+00 -.326E+00
   0.127E+03 -.771E+02 -.239E+04   -.129E+03 0.785E+02 0.238E+04   0.237E+01 -.133E+01 0.109E+01   -.245E-01 -.121E+00 -.904E-01
   -.240E+02 0.807E+02 -.657E+03   0.237E+02 -.811E+02 0.657E+03   0.123E+00 0.142E+00 0.678E+00   0.149E+00 0.319E+00 -.686E+00
   0.158E+02 -.373E+02 0.105E+04   -.162E+02 0.369E+02 -.105E+04   -.438E-01 0.308E-01 -.795E-01   0.365E+00 0.125E+00 -.796E+00
   -.748E+02 0.221E+01 -.652E+03   0.747E+02 -.244E+01 0.654E+03   0.161E-01 0.162E+00 -.731E+00   0.526E-01 0.671E-01 -.894E+00
   0.724E+02 -.618E+02 -.619E+03   -.730E+02 0.621E+02 0.619E+03   0.292E+00 -.103E+00 0.873E+00   0.313E+00 -.212E+00 -.741E+00
   -.478E+02 -.106E+02 -.667E+03   0.485E+02 0.109E+02 0.668E+03   -.143E+00 -.582E-01 0.453E+00   -.567E+00 -.261E+00 -.980E+00
   0.265E+02 0.729E+01 0.102E+04   -.258E+02 -.747E+01 -.102E+04   -.287E+00 -.125E-01 -.106E+00   -.555E+00 0.151E+00 -.125E+01
   0.528E+02 -.182E+02 -.679E+03   -.530E+02 0.186E+02 0.679E+03   0.340E+00 -.294E+00 0.400E+00   -.129E+00 -.116E+00 -.112E+01
   -.372E+02 0.446E+02 0.103E+04   0.371E+02 -.449E+02 -.103E+04   -.184E+00 0.182E-01 0.806E-01   -.508E-02 0.327E+00 -.119E+01
   0.635E+01 -.230E+01 -.187E+04   -.697E+01 0.233E+01 0.190E+04   0.591E+00 -.446E-01 -.265E+02   0.176E-01 0.318E-01 0.322E+00
   0.222E+02 -.228E+02 -.194E+04   -.205E+02 0.228E+02 0.196E+04   -.176E+01 -.279E-01 -.274E+02   0.552E-01 -.375E-01 0.834E-02
   -.362E+00 0.263E+01 -.188E+04   0.535E+00 -.284E+01 0.191E+04   -.135E+00 0.229E+00 -.263E+02   -.589E-01 0.231E-02 0.164E+00
   -.629E+01 0.219E+02 -.194E+04   0.667E+01 -.192E+02 0.197E+04   -.424E+00 -.278E+01 -.267E+02   0.357E-01 0.104E+00 0.550E-01
 -----------------------------------------------------------------------------------------------
   0.196E+01 0.317E+01 0.133E+03   -.260E-12 -.881E-12 -.614E-11   -.194E+01 -.313E+01 -.102E+03   -.252E-01 -.522E-01 -.314E+02
 
 
 POSITION                                       TOTAL-FORCE (eV/Angst)
 -----------------------------------------------------------------------------------
     -5.03208      8.74992      2.05921        -0.071150     -0.048583     -0.197456
     -0.00837      0.02451      8.10292        -0.012387     -0.014731      0.008411
      0.00574      8.72607      2.04466        -0.290303      0.424126      0.117520
      5.08811      0.00831      8.06084         0.028154      0.006261      0.007412
      2.47665      8.72592      2.00821         0.387776      0.220496      0.036469
      2.54330      8.71778      8.24442         0.001581     -0.030133     -0.031949
      1.23891      2.21748      2.05880         0.543914     -0.062135     -0.325203
      1.27123      2.16445      8.18620        -0.019505      0.026799     -0.009072
      0.08074      1.41419      4.05321        -1.040080      0.435001      0.394246
      2.49330      1.45451      4.14829         0.804906      0.166162     -0.738513
      1.25574      0.66084      6.18527         0.014674      0.013239     -0.003832
      5.06166      1.44930      4.13498        -0.400147      0.343023     -0.439773
      3.77473      0.71397      6.14217        -0.012131      0.009071      0.007718
      7.51557      1.45812      4.11001         0.535897     -0.020678     -0.681386
      6.33340      0.71758      6.12760        -0.028971     -0.021497     -0.001461
     -2.55062      4.47399      2.00995        -0.160966     -0.733784      0.259326
     -2.54424      4.40814      7.94931        -0.023971     -0.026167      0.030539
      0.03014      4.42905      2.07020        -0.266967     -0.518862     -0.161370
      0.01830      4.33622      8.15431         0.025242     -0.029582      0.000039
      2.50847      4.40516      2.07435         0.511960     -0.470677     -0.338760
      2.50583      4.33361      8.00622        -0.012621      0.033939      0.018461
      1.32139      3.64145      4.02771        -0.775655      0.349395      0.375156
      5.08382      4.44890      2.04815        -0.275739     -0.519809      0.756727
      5.05130      4.29981      8.22240         0.002568     -0.001390     -0.014573
      3.79377      3.69800      4.13071         0.336272     -0.032528     -0.813085
      2.51085      2.93921      6.09247         0.029698     -0.005538      0.006067
      6.25293      3.64956      4.08305         0.320179      0.136111     -0.161453
      5.07861      2.90617      6.16099         0.009838     -0.008586     -0.012358
      6.25194      6.54167      2.03547         0.346875      0.240278      0.092054
     -3.78628      6.60303      8.20831        -0.007972      0.027042     -0.019546
     -1.23133      6.52951      2.06361        -0.395761      0.353669     -0.098448
     -1.27071      6.60365      8.20037        -0.022043      0.009107     -0.012004
     -2.52172      5.87475      4.08745         0.066453     -0.412590      0.003972
      1.28426      6.55944      2.07409         0.073198      0.173048      0.081350
      1.31854      6.58547      8.18216         0.005353     -0.004500      0.015872
     -0.00626      5.79145      4.04458        -0.042972      0.384401      0.265254
     -1.24296      5.10448      6.06511         0.012495     -0.000559     -0.009298
      3.77628      6.55571      2.00000         0.019265      0.132986      0.261312
      3.79513      6.55772      8.10996        -0.005558     -0.024073      0.005723
      2.52387      5.78801      4.07310         0.249560      0.225513      0.360450
      5.06734      5.79704      4.10517        -0.063263      0.073627     -0.276452
      3.76812      5.12490      6.07481         0.012841      0.063091     -0.014681
      6.24008      5.12921      6.07741         0.021341     -0.001059     -0.041193
     -3.76296      8.02446      4.11956        -0.484981     -0.646475      0.101294
     -1.33707      8.05044      4.10308         0.736808     -0.427095      0.167020
     -2.55140      7.23344      6.18766         0.011694      0.021011     -0.026638
      2.47848      7.31470      6.13470         0.029982     -0.051421     -0.054467
      4.98887      7.23391      6.11601         0.027044     -0.015862     -0.007115
     -2.52690      8.74056      2.03303         0.064432      0.118905      0.182028
     -2.50162      8.73894      8.26099        -0.013157     -0.003231      0.002983
     -1.24953      2.18697      2.05404        -0.247817     -0.008363      0.421576
     -1.23033      2.22100      8.12006         0.022875     -0.006810      0.003806
      3.77687      2.20348      2.02824         0.119025      0.125525      0.646572
      3.81832      2.18434      8.19540         0.015603      0.034573      0.011984
      6.31052      2.19548      2.03586        -0.156276      0.135392      0.312624
      6.33129      2.19280      8.18426        -0.005725      0.007306      0.010863
      8.85707      0.72719      6.09449        -0.017158      0.039941      0.013800
     -1.27338      3.65234      4.08853        -0.017388     -0.194596     -0.303357
      0.02183      2.90709      6.09449        -0.025242     -0.006874     -0.030614
      7.57733      2.90593      6.06495        -0.005782     -0.005651     -0.013542
      1.23354      5.11275      6.07557         0.006123     -0.000895      0.001730
      1.25660      8.01495      4.09194        -0.227691     -0.047684      0.000512
     -0.01340      7.27014      6.08738        -0.014796      0.013510      0.004330
      3.80919      8.00883      4.09175        -0.255667      0.052781     -0.066636
      5.02691      5.82405      9.29741        -0.015956      0.015570     -0.008162
      2.48010      1.51525      9.36084         0.048621     -0.039217     -0.012453
      0.02133      5.80668      9.28636        -0.020868      0.019169     -0.027978
      7.65284      1.42696      9.30116        -0.005583      0.011561     -0.032373
 -----------------------------------------------------------------------------------
    total drift:                               -0.003326     -0.011061      0.094955


--------------------------------------------------------------------------------------------------------



  FREE ENERGIE OF THE ION-ELECTRON SYSTEM (eV)
  ---------------------------------------------------
  free  energy   TOTEN  =      -499.47184964 eV

  energy  without entropy=     -499.47184964  energy(sigma->0) =     -499.47184964
 


--------------------------------------------------------------------------------------------------------


    POTLOK:  cpu time    0.4430: real time    0.4548


--------------------------------------------------------------------------------------------------------


 stress matrix after NEB project (eV)
    -35.78110      1.19950     -0.26315
      1.19950    -36.65327      0.83468
     -0.26315      0.83468     -5.22365
  FORCES: max atom, RMS     0.080682    0.026038
  FORCE total and by dimension    0.214719    0.063091
  Stress total and by dimension   51.531016   36.653271
     LOOP+:  cpu time 1997.4190: real time 1998.6935
    4ORBIT:  cpu time    0.0000: real time    0.0000
 


 total charge     
 
# of ion       s       p       d       tot
------------------------------------------
    1        0.478   0.400   6.165   7.043
    2        0.471   0.404   6.203   7.078
    3        0.470   0.393   6.135   6.999
    4        0.474   0.412   6.185   7.071
    5        0.466   0.385   6.142   6.993
    6        0.490   0.531   6.247   7.268
    7        0.479   0.408   6.180   7.067
    8        0.491   0.534   6.257   7.282
    9        0.486   0.510   6.221   7.218
   10        0.496   0.531   6.236   7.263
   11        0.484   0.528   6.235   7.248
   12        0.488   0.527   6.188   7.202
   13        0.484   0.519   6.236   7.239
   14        0.474   0.493   6.189   7.156
   15        0.487   0.523   6.241   7.251
   16        0.474   0.393   6.153   7.020
   17        0.479   0.418   6.198   7.095
   18        0.489   0.429   6.198   7.116
   19        0.473   0.507   6.222   7.202
   20        0.497   0.430   6.199   7.125
   21        0.483   0.421   6.222   7.126
   22        0.501   0.547   6.272   7.320
   23        0.477   0.398   6.303   7.178
   24        0.471   0.500   6.208   7.179
   25        0.502   0.557   6.243   7.303
   26        0.489   0.533   6.241   7.264
   27        0.488   0.529   6.237   7.255
   28        0.485   0.539   6.220   7.244
   29        0.487   0.423   6.195   7.104
   30        0.473   0.515   6.234   7.222
   31        0.486   0.421   6.203   7.110
   32        0.471   0.508   6.217   7.197
   33        0.502   0.558   6.199   7.259
   34        0.495   0.441   6.213   7.149
   35        0.474   0.510   6.239   7.224
   36        0.499   0.548   6.208   7.255
   37        0.490   0.527   6.214   7.231
   38        0.480   0.415   6.168   7.063
   39        0.499   0.554   6.233   7.286
   40        0.496   0.548   6.248   7.292
   41        0.506   0.562   6.265   7.333
   42        0.506   0.569   6.281   7.356
   43        0.498   0.548   6.288   7.334
   44        0.492   0.534   6.257   7.283
   45        0.484   0.523   6.236   7.243
   46        0.489   0.533   6.271   7.292
   47        0.489   0.535   6.206   7.231
   48        0.504   0.561   6.215   7.281
   49        0.502   0.387   8.302   9.191
   50        0.505   0.502   8.322   9.329
   51        0.495   0.377   8.306   9.178
   52        0.497   0.499   8.326   9.322
   53        0.487   0.358   8.304   9.149
   54        0.500   0.503   8.324   9.327
   55        0.500   0.371   8.308   9.179
   56        0.497   0.495   8.330   9.323
   57        0.506   0.513   8.316   9.336
   58        0.507   0.504   8.322   9.333
   59        0.504   0.511   8.310   9.325
   60        0.513   0.519   8.323   9.356
   61        0.526   0.541   8.325   9.392
   62        0.517   0.533   8.313   9.363
   63        0.517   0.532   8.323   9.372
   64        0.506   0.510   8.321   9.338
   65        1.581   3.377   0.000   4.958
   66        1.582   3.348   0.000   4.930
   67        1.580   3.383   0.000   4.963
   68        1.581   3.351   0.000   4.932
--------------------------------------------------
tot         37.751  44.747 431.646 514.144
 


 magnetization (x)
 
# of ion       s       p       d       tot
------------------------------------------
    1        0.002  -0.006   2.706   2.702
    2        0.012   0.011   2.740   2.763
    3        0.006  -0.002   2.739   2.743
    4        0.002  -0.001   2.867   2.868
    5        0.004  -0.010   2.799   2.794
    6        0.009   0.003   2.205   2.216
    7       -0.003  -0.010   2.671   2.658
    8        0.004  -0.010   2.339   2.332
    9       -0.005  -0.034   2.582   2.543
   10       -0.003  -0.022   2.407   2.382
   11       -0.007  -0.029   2.429   2.393
   12       -0.035  -0.059  -1.963  -2.057
   13       -0.005  -0.024   2.372   2.342
   14        0.008  -0.006   2.601   2.602
   15       -0.002  -0.019   2.437   2.417
   16        0.012   0.000   2.622   2.634
   17        0.001  -0.009   2.813   2.805
   18        0.001  -0.015   2.487   2.473
   19        0.007  -0.003   2.467   2.471
   20        0.005  -0.003   2.406   2.408
   21        0.011   0.003   2.640   2.654
   22       -0.002  -0.016   2.085   2.066
   23       -0.030  -0.024  -0.020  -0.074
   24        0.010   0.007   2.536   2.552
   25       -0.024  -0.036  -1.811  -1.871
   26       -0.004  -0.025   2.329   2.301
   27        0.004  -0.001   2.090   2.093
   28        0.009  -0.001   2.210   2.218
   29        0.002  -0.018   2.437   2.422
   30        0.006   0.000   2.377   2.383
   31        0.003  -0.015   2.381   2.369
   32        0.007  -0.007   2.494   2.494
   33       -0.040  -0.073  -1.984  -2.096
   34        0.003  -0.026   2.384   2.360
   35        0.010   0.001   2.216   2.227
   36       -0.031  -0.047  -2.055  -2.133
   37        0.006  -0.017   2.398   2.387
   38        0.005  -0.011   2.534   2.528
   39       -0.028  -0.044  -2.118  -2.191
   40       -0.024  -0.043  -1.682  -1.748
   41        0.008   0.005   1.908   1.921
   42       -0.019  -0.026  -1.543  -1.588
   43       -0.004  -0.029   1.854   1.821
   44       -0.003  -0.027   2.167   2.137
   45        0.001  -0.008   2.147   2.140
   46       -0.002  -0.013   1.975   1.960
   47        0.015   0.010   2.336   2.361
   48       -0.033  -0.049  -2.017  -2.098
   49       -0.030  -0.036   0.722   0.656
   50       -0.023  -0.030   0.623   0.570
   51       -0.031  -0.029   0.683   0.622
   52       -0.017  -0.020   0.537   0.500
   53       -0.014  -0.014   0.387   0.359
   54       -0.020  -0.024   0.599   0.555
   55       -0.021  -0.014   0.484   0.450
   56       -0.016  -0.024   0.545   0.505
   57       -0.022  -0.044   0.656   0.589
   58       -0.015  -0.036   0.478   0.427
   59       -0.017  -0.029   0.601   0.555
   60       -0.023  -0.042   0.751   0.686
   61       -0.018  -0.037   0.391   0.337
   62       -0.014  -0.037   0.515   0.463
   63       -0.027  -0.055   0.636   0.554
   64       -0.018  -0.039   0.446   0.389
   65        0.001   0.027   0.000   0.028
   66        0.002   0.080   0.000   0.083
   67        0.004   0.083   0.000   0.086
   68        0.003   0.076   0.000   0.079
--------------------------------------------------
tot         -0.445  -1.025  88.050  86.580
 
 BZINTS: Fermi energy: -0.287894;568.000000 electrons
         Band energy:***********;  BLOECHL correction: -0.003039

 total amount of memory used by VASP MPI-rank0   242498. kBytes
=======================================================================

   base      :      30000. kBytes
   nonlr-proj:      13830. kBytes
   fftplans  :       6403. kBytes
   grid      :      17692. kBytes
   one-center:         93. kBytes
   wavefun   :     174480. kBytes
 
  
  
 General timing and accounting informations for this job:
 ========================================================
  
                  Total CPU time used (sec):     2117.029
                            User time (sec):     2023.213
                          System time (sec):       93.816
                         Elapsed time (sec):     2128.576
  
                   Maximum memory used (kb):      487892.
                   Average memory used (kb):           0.
  
                          Minor page faults:     24067439
                          Major page faults:           23
                 Voluntary context switches:         3447
