  70  70   1   0
  0.2682493E+02  0.1010031E-08  0.1010031E-08  0.2125380E-08  0.1500000E-16
  1.000000000000000E-004
  CAR 
 SQS-NiFe                                
      3.55828661    -21.51511688  301     -0.15363384      1.00000000
    -21.515  0.0000E+00  0.0000E+00
    -21.432  0.0000E+00  0.0000E+00
    -21.348  0.0000E+00  0.0000E+00
    -21.264  0.0000E+00  0.0000E+00
    -21.181  0.0000E+00  0.0000E+00
    -21.097  0.0000E+00  0.0000E+00
    -21.014  0.0000E+00  0.0000E+00
    -20.930  0.0000E+00  0.0000E+00
    -20.846  0.0000E+00  0.0000E+00
    -20.763  0.0000E+00  0.0000E+00
    -20.679  0.3029E-17  0.2532E-18
    -20.596  0.2908E-15  0.2456E-16
    -20.512  0.2406E-13  0.2036E-14
    -20.429  0.1411E-11  0.1199E-12
    -20.345  0.5862E-10  0.5019E-11
    -20.261  0.1728E-08  0.1494E-09
    -20.178  0.3615E-07  0.3171E-08
    -20.094  0.5371E-06  0.4806E-07
    -20.011  0.5670E-05  0.5219E-06
    -19.927  0.4256E-04  0.4079E-05
    -19.844  0.2274E-03  0.2308E-04
    -19.760  0.8670E-03  0.9555E-04
    -19.676  0.2376E-02  0.2941E-03
    -19.593  0.4780E-02  0.6937E-03
    -19.509  0.7508E-02  0.1321E-02
    -19.426  0.1051E-01  0.2200E-02
    -19.342  0.1500E-01  0.3453E-02
    -19.259  0.2095E-01  0.5204E-02
    -19.175  0.2477E-01  0.7274E-02
    -19.091  0.2259E-01  0.9162E-02
    -19.008  0.1535E-01  0.1044E-01
    -18.924  0.7691E-02  0.1109E-01
    -18.841  0.2831E-02  0.1132E-01
    -18.757  0.7628E-03  0.1139E-01
    -18.673  0.1500E-03  0.1140E-01
    -18.590  0.2145E-04  0.1140E-01
    -18.506  0.2221E-05  0.1140E-01
    -18.423  0.1659E-06  0.1140E-01
    -18.339  0.8909E-08  0.1140E-01
    -18.256  0.3429E-09  0.1140E-01
    -18.172  0.9432E-11  0.1140E-01
    -18.088  0.1851E-12  0.1140E-01
    -18.005  0.2584E-14  0.1140E-01
    -17.921  0.2423E-16  0.1140E-01
    -17.838  0.0000E+00  0.1140E-01
    -17.754  0.0000E+00  0.1140E-01
    -17.671  0.0000E+00  0.1140E-01
    -17.587  0.0000E+00  0.1140E-01
    -17.503  0.0000E+00  0.1140E-01
    -17.420  0.0000E+00  0.1140E-01
    -17.336  0.0000E+00  0.1140E-01
    -17.253  0.0000E+00  0.1140E-01
    -17.169  0.0000E+00  0.1140E-01
    -17.085  0.0000E+00  0.1140E-01
    -17.002  0.0000E+00  0.1140E-01
    -16.918  0.0000E+00  0.1140E-01
    -16.835  0.0000E+00  0.1140E-01
    -16.751  0.0000E+00  0.1140E-01
    -16.668  0.0000E+00  0.1140E-01
    -16.584  0.0000E+00  0.1140E-01
    -16.500  0.0000E+00  0.1140E-01
    -16.417  0.0000E+00  0.1140E-01
    -16.333  0.0000E+00  0.1140E-01
    -16.250  0.0000E+00  0.1140E-01
    -16.166  0.0000E+00  0.1140E-01
    -16.083  0.0000E+00  0.1140E-01
    -15.999  0.0000E+00  0.1140E-01
    -15.915  0.0000E+00  0.1140E-01
    -15.832  0.0000E+00  0.1140E-01
    -15.748  0.0000E+00  0.1140E-01
    -15.665  0.0000E+00  0.1140E-01
    -15.581  0.0000E+00  0.1140E-01
    -15.498  0.0000E+00  0.1140E-01
    -15.414  0.0000E+00  0.1140E-01
    -15.330  0.0000E+00  0.1140E-01
    -15.247  0.0000E+00  0.1140E-01
    -15.163  0.0000E+00  0.1140E-01
    -15.080  0.0000E+00  0.1140E-01
    -14.996  0.0000E+00  0.1140E-01
    -14.912  0.0000E+00  0.1140E-01
    -14.829  0.0000E+00  0.1140E-01
    -14.745  0.0000E+00  0.1140E-01
    -14.662  0.0000E+00  0.1140E-01
    -14.578  0.0000E+00  0.1140E-01
    -14.495  0.0000E+00  0.1140E-01
    -14.411  0.0000E+00  0.1140E-01
    -14.327  0.0000E+00  0.1140E-01
    -14.244  0.0000E+00  0.1140E-01
    -14.160  0.0000E+00  0.1140E-01
    -14.077  0.0000E+00  0.1140E-01
    -13.993  0.0000E+00  0.1140E-01
    -13.910  0.0000E+00  0.1140E-01
    -13.826  0.0000E+00  0.1140E-01
    -13.742  0.0000E+00  0.1140E-01
    -13.659  0.0000E+00  0.1140E-01
    -13.575  0.0000E+00  0.1140E-01
    -13.492  0.0000E+00  0.1140E-01
    -13.408  0.0000E+00  0.1140E-01
    -13.324  0.0000E+00  0.1140E-01
    -13.241  0.0000E+00  0.1140E-01
    -13.157  0.0000E+00  0.1140E-01
    -13.074  0.0000E+00  0.1140E-01
    -12.990  0.0000E+00  0.1140E-01
    -12.907  0.0000E+00  0.1140E-01
    -12.823  0.0000E+00  0.1140E-01
    -12.739  0.0000E+00  0.1140E-01
    -12.656  0.0000E+00  0.1140E-01
    -12.572  0.0000E+00  0.1140E-01
    -12.489  0.0000E+00  0.1140E-01
    -12.405  0.0000E+00  0.1140E-01
    -12.322  0.0000E+00  0.1140E-01
    -12.238  0.0000E+00  0.1140E-01
    -12.154  0.0000E+00  0.1140E-01
    -12.071  0.0000E+00  0.1140E-01
    -11.987  0.0000E+00  0.1140E-01
    -11.904  0.0000E+00  0.1140E-01
    -11.820  0.0000E+00  0.1140E-01
    -11.736  0.0000E+00  0.1140E-01
    -11.653  0.0000E+00  0.1140E-01
    -11.569  0.0000E+00  0.1140E-01
    -11.486  0.0000E+00  0.1140E-01
    -11.402  0.0000E+00  0.1140E-01
    -11.319  0.0000E+00  0.1140E-01
    -11.235  0.0000E+00  0.1140E-01
    -11.151  0.0000E+00  0.1140E-01
    -11.068  0.0000E+00  0.1140E-01
    -10.984  0.0000E+00  0.1140E-01
    -10.901  0.0000E+00  0.1140E-01
    -10.817  0.0000E+00  0.1140E-01
    -10.734  0.0000E+00  0.1140E-01
    -10.650  0.0000E+00  0.1140E-01
    -10.566  0.0000E+00  0.1140E-01
    -10.483  0.0000E+00  0.1140E-01
    -10.399  0.0000E+00  0.1140E-01
    -10.316  0.0000E+00  0.1140E-01
    -10.232  0.0000E+00  0.1140E-01
    -10.149  0.0000E+00  0.1140E-01
    -10.065  0.0000E+00  0.1140E-01
     -9.981  0.0000E+00  0.1140E-01
     -9.898  0.0000E+00  0.1140E-01
     -9.814  0.0000E+00  0.1140E-01
     -9.731  0.0000E+00  0.1140E-01
     -9.647  0.0000E+00  0.1140E-01
     -9.563  0.0000E+00  0.1140E-01
     -9.480  0.0000E+00  0.1140E-01
     -9.396  0.5301E-16  0.1140E-01
     -9.313  0.4947E-14  0.1140E-01
     -9.229  0.3290E-12  0.1140E-01
     -9.146  0.1552E-10  0.1140E-01
     -9.062  0.5189E-09  0.1140E-01
     -8.978  0.1231E-07  0.1140E-01
     -8.895  0.2074E-06  0.1140E-01
     -8.811  0.2482E-05  0.1140E-01
     -8.728  0.2111E-04  0.1140E-01
     -8.644  0.1276E-03  0.1142E-01
     -8.561  0.5491E-03  0.1146E-01
     -8.477  0.1682E-02  0.1160E-01
     -8.393  0.3666E-02  0.1191E-01
     -8.310  0.5693E-02  0.1238E-01
     -8.226  0.6297E-02  0.1291E-01
     -8.143  0.4961E-02  0.1332E-01
     -8.059  0.2784E-02  0.1356E-01
     -7.975  0.1112E-02  0.1365E-01
     -7.892  0.3165E-03  0.1368E-01
     -7.808  0.6460E-04  0.1368E-01
     -7.725  0.1489E-04  0.1368E-01
     -7.641  0.4346E-04  0.1369E-01
     -7.558  0.2271E-03  0.1371E-01
     -7.474  0.8630E-03  0.1378E-01
     -7.390  0.2343E-02  0.1397E-01
     -7.307  0.4573E-02  0.1436E-01
     -7.223  0.6562E-02  0.1490E-01
     -7.140  0.7381E-02  0.1552E-01
     -7.056  0.7463E-02  0.1615E-01
     -6.973  0.7847E-02  0.1680E-01
     -6.889  0.8696E-02  0.1753E-01
     -6.805  0.1000E-01  0.1836E-01
     -6.722  0.1253E-01  0.1941E-01
     -6.638  0.1668E-01  0.2081E-01
     -6.555  0.2160E-01  0.2261E-01
     -6.471  0.2595E-01  0.2478E-01
     -6.387  0.2784E-01  0.2711E-01
     -6.304  0.2528E-01  0.2922E-01
     -6.220  0.1890E-01  0.3080E-01
     -6.137  0.1311E-01  0.3190E-01
     -6.053  0.1226E-01  0.3292E-01
     -5.970  0.1663E-01  0.3431E-01
     -5.886  0.2359E-01  0.3628E-01
     -5.802  0.3144E-01  0.3891E-01
     -5.719  0.4007E-01  0.4226E-01
     -5.635  0.4765E-01  0.4624E-01
     -5.552  0.4987E-01  0.5041E-01
     -5.468  0.4402E-01  0.5409E-01
     -5.385  0.3208E-01  0.5677E-01
     -5.301  0.1968E-01  0.5841E-01
     -5.217  0.1258E-01  0.5946E-01
     -5.134  0.1361E-01  0.6060E-01
     -5.050  0.2140E-01  0.6239E-01
     -4.967  0.3102E-01  0.6498E-01
     -4.883  0.3659E-01  0.6804E-01
     -4.800  0.3503E-01  0.7097E-01
     -4.716  0.2807E-01  0.7332E-01
     -4.632  0.2077E-01  0.7505E-01
     -4.549  0.1801E-01  0.7656E-01
     -4.465  0.2208E-01  0.7840E-01
     -4.382  0.3176E-01  0.8106E-01
     -4.298  0.4179E-01  0.8455E-01
     -4.214  0.4706E-01  0.8848E-01
     -4.131  0.4953E-01  0.9262E-01
     -4.047  0.5684E-01  0.9737E-01
     -3.964  0.7272E-01  0.1035E+00
     -3.880  0.9381E-01  0.1113E+00
     -3.797  0.1149E+00  0.1209E+00
     -3.713  0.1327E+00  0.1320E+00
     -3.629  0.1434E+00  0.1440E+00
     -3.546  0.1425E+00  0.1559E+00
     -3.462  0.1283E+00  0.1666E+00
     -3.379  0.1082E+00  0.1756E+00
     -3.295  0.9611E-01  0.1837E+00
     -3.212  0.1005E+00  0.1921E+00
     -3.128  0.1153E+00  0.2017E+00
     -3.044  0.1258E+00  0.2122E+00
     -2.961  0.1243E+00  0.2226E+00
     -2.877  0.1174E+00  0.2324E+00
     -2.794  0.1175E+00  0.2422E+00
     -2.710  0.1274E+00  0.2529E+00
     -2.626  0.1392E+00  0.2645E+00
     -2.543  0.1447E+00  0.2766E+00
     -2.459  0.1447E+00  0.2887E+00
     -2.376  0.1455E+00  0.3009E+00
     -2.292  0.1496E+00  0.3134E+00
     -2.209  0.1542E+00  0.3263E+00
     -2.125  0.1587E+00  0.3395E+00
     -2.041  0.1672E+00  0.3535E+00
     -1.958  0.1821E+00  0.3687E+00
     -1.874  0.1993E+00  0.3854E+00
     -1.791  0.2126E+00  0.4031E+00
     -1.707  0.2191E+00  0.4215E+00
     -1.624  0.2181E+00  0.4397E+00
     -1.540  0.2091E+00  0.4572E+00
     -1.456  0.1933E+00  0.4733E+00
     -1.373  0.1757E+00  0.4880E+00
     -1.289  0.1617E+00  0.5015E+00
     -1.206  0.1542E+00  0.5144E+00
     -1.122  0.1539E+00  0.5273E+00
     -1.039  0.1593E+00  0.5406E+00
     -0.955  0.1668E+00  0.5545E+00
     -0.871  0.1730E+00  0.5690E+00
     -0.788  0.1771E+00  0.5838E+00
     -0.704  0.1794E+00  0.5988E+00
     -0.621  0.1799E+00  0.6138E+00
     -0.537  0.1781E+00  0.6287E+00
     -0.453  0.1747E+00  0.6433E+00
     -0.370  0.1716E+00  0.6576E+00
     -0.286  0.1701E+00  0.6719E+00
     -0.203  0.1702E+00  0.6861E+00
     -0.119  0.1694E+00  0.7002E+00
     -0.036  0.1656E+00  0.7141E+00
      0.048  0.1599E+00  0.7274E+00
      0.132  0.1549E+00  0.7404E+00
      0.215  0.1515E+00  0.7530E+00
      0.299  0.1476E+00  0.7654E+00
      0.382  0.1400E+00  0.7771E+00
      0.466  0.1260E+00  0.7876E+00
      0.549  0.1056E+00  0.7964E+00
      0.633  0.8267E-01  0.8033E+00
      0.717  0.6222E-01  0.8085E+00
      0.800  0.4740E-01  0.8125E+00
      0.884  0.3859E-01  0.8157E+00
      0.967  0.3415E-01  0.8186E+00
      1.051  0.3181E-01  0.8212E+00
      1.135  0.3006E-01  0.8238E+00
      1.218  0.2826E-01  0.8261E+00
      1.302  0.2597E-01  0.8283E+00
      1.385  0.2284E-01  0.8302E+00
      1.469  0.1897E-01  0.8318E+00
      1.552  0.1462E-01  0.8330E+00
      1.636  0.1008E-01  0.8339E+00
      1.720  0.5840E-02  0.8343E+00
      1.803  0.2677E-02  0.8346E+00
      1.887  0.9267E-03  0.8346E+00
      1.970  0.2357E-03  0.8347E+00
      2.054  0.4339E-04  0.8347E+00
      2.137  0.5728E-05  0.8347E+00
      2.221  0.5401E-06  0.8347E+00
      2.305  0.3626E-07  0.8347E+00
      2.388  0.1731E-08  0.8347E+00
      2.472  0.5867E-10  0.8347E+00
      2.555  0.1411E-11  0.8347E+00
      2.639  0.2407E-13  0.8347E+00
      2.723  0.2908E-15  0.8347E+00
      2.806  0.3029E-17  0.8347E+00
      2.890  0.0000E+00  0.8347E+00
      2.973  0.0000E+00  0.8347E+00
      3.057  0.0000E+00  0.8347E+00
      3.140  0.0000E+00  0.8347E+00
      3.224  0.0000E+00  0.8347E+00
      3.308  0.0000E+00  0.8347E+00
      3.391  0.0000E+00  0.8347E+00
      3.475  0.0000E+00  0.8347E+00
      3.558  0.0000E+00  0.8347E+00
      3.55828661    -21.51511688  301     -0.15363384      1.00000000
    -21.515  0.0000E+00  0.0000E+00  0.0000E+00
    -21.432  0.0000E+00  0.0000E+00  0.0000E+00
    -21.348  0.0000E+00  0.0000E+00  0.0000E+00
    -21.264  0.0000E+00  0.0000E+00  0.0000E+00
    -21.181  0.0000E+00  0.0000E+00  0.0000E+00
    -21.097  0.0000E+00  0.0000E+00  0.0000E+00
    -21.014  0.0000E+00  0.0000E+00  0.0000E+00
    -20.930  0.0000E+00  0.0000E+00  0.0000E+00
    -20.846  0.0000E+00  0.0000E+00  0.0000E+00
    -20.763  0.0000E+00  0.0000E+00  0.0000E+00
    -20.679  0.2717E-22  0.1851E-22  0.4033E-23
    -20.596  0.2608E-20  0.1777E-20  0.3872E-21
    -20.512  0.2158E-18  0.1470E-18  0.3204E-19
    -20.429  0.1265E-16  0.8620E-17  0.1878E-17
    -20.345  0.5258E-15  0.3582E-15  0.7805E-16
    -20.261  0.1550E-13  0.1056E-13  0.2301E-14
    -20.178  0.3243E-12  0.2209E-12  0.4814E-13
    -20.094  0.4817E-11  0.3282E-11  0.7151E-12
    -20.011  0.5085E-10  0.3465E-10  0.7548E-11
    -19.927  0.3817E-09  0.2600E-09  0.5665E-10
    -19.844  0.2039E-08  0.1389E-08  0.3026E-09
    -19.760  0.7765E-08  0.5288E-08  0.1153E-08
    -19.676  0.2119E-07  0.1442E-07  0.3147E-08
    -19.593  0.4200E-07  0.2850E-07  0.6242E-08
    -19.509  0.6282E-07  0.4228E-07  0.9351E-08
    -19.426  0.7745E-07  0.5111E-07  0.1155E-07
    -19.342  0.8929E-07  0.5707E-07  0.1331E-07
    -19.259  0.1001E-06  0.6202E-07  0.1481E-07
    -19.175  0.9876E-07  0.5986E-07  0.1439E-07
    -19.091  0.7669E-07  0.4579E-07  0.1096E-07
    -19.008  0.4441E-07  0.2614E-07  0.6182E-08
    -18.924  0.1883E-07  0.1091E-07  0.2536E-08
    -18.841  0.5830E-08  0.3311E-08  0.7532E-09
    -18.757  0.1319E-08  0.7320E-09  0.1620E-09
    -18.673  0.2190E-09  0.1182E-09  0.2529E-10
    -18.590  0.2672E-10  0.1400E-10  0.2875E-11
    -18.506  0.2398E-11  0.1217E-11  0.2389E-12
    -18.423  0.1583E-12  0.7782E-13  0.1454E-13
    -18.339  0.7662E-14  0.3654E-14  0.6495E-15
    -18.256  0.2709E-15  0.1257E-15  0.2128E-16
    -18.172  0.6963E-17  0.3154E-17  0.5105E-18
    -18.088  0.1295E-18  0.5749E-19  0.8938E-20
    -18.005  0.1735E-20  0.7582E-21  0.1140E-21
    -17.921  0.1395E-22  0.5717E-23  0.7401E-24
    -17.838  0.0000E+00  0.0000E+00  0.0000E+00
    -17.754  0.0000E+00  0.0000E+00  0.0000E+00
    -17.671  0.0000E+00  0.0000E+00  0.0000E+00
    -17.587  0.0000E+00  0.0000E+00  0.0000E+00
    -17.503  0.0000E+00  0.0000E+00  0.0000E+00
    -17.420  0.0000E+00  0.0000E+00  0.0000E+00
    -17.336  0.0000E+00  0.0000E+00  0.0000E+00
    -17.253  0.0000E+00  0.0000E+00  0.0000E+00
    -17.169  0.0000E+00  0.0000E+00  0.0000E+00
    -17.085  0.0000E+00  0.0000E+00  0.0000E+00
    -17.002  0.0000E+00  0.0000E+00  0.0000E+00
    -16.918  0.0000E+00  0.0000E+00  0.0000E+00
    -16.835  0.0000E+00  0.0000E+00  0.0000E+00
    -16.751  0.0000E+00  0.0000E+00  0.0000E+00
    -16.668  0.0000E+00  0.0000E+00  0.0000E+00
    -16.584  0.0000E+00  0.0000E+00  0.0000E+00
    -16.500  0.0000E+00  0.0000E+00  0.0000E+00
    -16.417  0.0000E+00  0.0000E+00  0.0000E+00
    -16.333  0.0000E+00  0.0000E+00  0.0000E+00
    -16.250  0.0000E+00  0.0000E+00  0.0000E+00
    -16.166  0.0000E+00  0.0000E+00  0.0000E+00
    -16.083  0.0000E+00  0.0000E+00  0.0000E+00
    -15.999  0.0000E+00  0.0000E+00  0.0000E+00
    -15.915  0.0000E+00  0.0000E+00  0.0000E+00
    -15.832  0.0000E+00  0.0000E+00  0.0000E+00
    -15.748  0.0000E+00  0.0000E+00  0.0000E+00
    -15.665  0.0000E+00  0.0000E+00  0.0000E+00
    -15.581  0.0000E+00  0.0000E+00  0.0000E+00
    -15.498  0.0000E+00  0.0000E+00  0.0000E+00
    -15.414  0.0000E+00  0.0000E+00  0.0000E+00
    -15.330  0.0000E+00  0.0000E+00  0.0000E+00
    -15.247  0.0000E+00  0.0000E+00  0.0000E+00
    -15.163  0.0000E+00  0.0000E+00  0.0000E+00
    -15.080  0.0000E+00  0.0000E+00  0.0000E+00
    -14.996  0.0000E+00  0.0000E+00  0.0000E+00
    -14.912  0.0000E+00  0.0000E+00  0.0000E+00
    -14.829  0.0000E+00  0.0000E+00  0.0000E+00
    -14.745  0.0000E+00  0.0000E+00  0.0000E+00
    -14.662  0.0000E+00  0.0000E+00  0.0000E+00
    -14.578  0.0000E+00  0.0000E+00  0.0000E+00
    -14.495  0.0000E+00  0.0000E+00  0.0000E+00
    -14.411  0.0000E+00  0.0000E+00  0.0000E+00
    -14.327  0.0000E+00  0.0000E+00  0.0000E+00
    -14.244  0.0000E+00  0.0000E+00  0.0000E+00
    -14.160  0.0000E+00  0.0000E+00  0.0000E+00
    -14.077  0.0000E+00  0.0000E+00  0.0000E+00
    -13.993  0.0000E+00  0.0000E+00  0.0000E+00
    -13.910  0.0000E+00  0.0000E+00  0.0000E+00
    -13.826  0.0000E+00  0.0000E+00  0.0000E+00
    -13.742  0.0000E+00  0.0000E+00  0.0000E+00
    -13.659  0.0000E+00  0.0000E+00  0.0000E+00
    -13.575  0.0000E+00  0.0000E+00  0.0000E+00
    -13.492  0.0000E+00  0.0000E+00  0.0000E+00
    -13.408  0.0000E+00  0.0000E+00  0.0000E+00
    -13.324  0.0000E+00  0.0000E+00  0.0000E+00
    -13.241  0.0000E+00  0.0000E+00  0.0000E+00
    -13.157  0.0000E+00  0.0000E+00  0.0000E+00
    -13.074  0.0000E+00  0.0000E+00  0.0000E+00
    -12.990  0.0000E+00  0.0000E+00  0.0000E+00
    -12.907  0.0000E+00  0.0000E+00  0.0000E+00
    -12.823  0.0000E+00  0.0000E+00  0.0000E+00
    -12.739  0.0000E+00  0.0000E+00  0.0000E+00
    -12.656  0.0000E+00  0.0000E+00  0.0000E+00
    -12.572  0.0000E+00  0.0000E+00  0.0000E+00
    -12.489  0.0000E+00  0.0000E+00  0.0000E+00
    -12.405  0.0000E+00  0.0000E+00  0.0000E+00
    -12.322  0.0000E+00  0.0000E+00  0.0000E+00
    -12.238  0.0000E+00  0.0000E+00  0.0000E+00
    -12.154  0.0000E+00  0.0000E+00  0.0000E+00
    -12.071  0.0000E+00  0.0000E+00  0.0000E+00
    -11.987  0.0000E+00  0.0000E+00  0.0000E+00
    -11.904  0.0000E+00  0.0000E+00  0.0000E+00
    -11.820  0.0000E+00  0.0000E+00  0.0000E+00
    -11.736  0.0000E+00  0.0000E+00  0.0000E+00
    -11.653  0.0000E+00  0.0000E+00  0.0000E+00
    -11.569  0.0000E+00  0.0000E+00  0.0000E+00
    -11.486  0.0000E+00  0.0000E+00  0.0000E+00
    -11.402  0.0000E+00  0.0000E+00  0.0000E+00
    -11.319  0.0000E+00  0.0000E+00  0.0000E+00
    -11.235  0.0000E+00  0.0000E+00  0.0000E+00
    -11.151  0.0000E+00  0.0000E+00  0.0000E+00
    -11.068  0.0000E+00  0.0000E+00  0.0000E+00
    -10.984  0.0000E+00  0.0000E+00  0.0000E+00
    -10.901  0.0000E+00  0.0000E+00  0.0000E+00
    -10.817  0.0000E+00  0.0000E+00  0.0000E+00
    -10.734  0.0000E+00  0.0000E+00  0.0000E+00
    -10.650  0.0000E+00  0.0000E+00  0.0000E+00
    -10.566  0.0000E+00  0.0000E+00  0.0000E+00
    -10.483  0.0000E+00  0.0000E+00  0.0000E+00
    -10.399  0.0000E+00  0.0000E+00  0.0000E+00
    -10.316  0.0000E+00  0.0000E+00  0.0000E+00
    -10.232  0.0000E+00  0.0000E+00  0.0000E+00
    -10.149  0.0000E+00  0.0000E+00  0.0000E+00
    -10.065  0.0000E+00  0.0000E+00  0.0000E+00
     -9.981  0.0000E+00  0.0000E+00  0.0000E+00
     -9.898  0.0000E+00  0.0000E+00  0.0000E+00
     -9.814  0.0000E+00  0.0000E+00  0.0000E+00
     -9.731  0.0000E+00  0.0000E+00  0.0000E+00
     -9.647  0.0000E+00  0.0000E+00  0.0000E+00
     -9.563  0.0000E+00  0.0000E+00  0.0000E+00
     -9.480  0.0000E+00  0.0000E+00  0.0000E+00
     -9.396  0.8498E-15  0.5098E-17  0.4315E-17
     -9.313  0.7930E-13  0.4758E-15  0.4027E-15
     -9.229  0.5275E-11  0.3164E-13  0.2678E-13
     -9.146  0.2487E-09  0.1492E-11  0.1263E-11
     -9.062  0.8317E-08  0.4990E-10  0.4223E-10
     -8.978  0.1974E-06  0.1184E-08  0.1002E-08
     -8.895  0.3325E-05  0.1995E-07  0.1688E-07
     -8.811  0.3978E-04  0.2387E-06  0.2020E-06
     -8.728  0.3383E-03  0.2030E-05  0.1718E-05
     -8.644  0.2046E-02  0.1227E-04  0.1039E-04
     -8.561  0.8803E-02  0.5281E-04  0.4470E-04
     -8.477  0.2696E-01  0.1617E-03  0.1369E-03
     -8.393  0.5877E-01  0.3526E-03  0.2984E-03
     -8.310  0.9126E-01  0.5475E-03  0.4634E-03
     -8.226  0.1009E+00  0.6056E-03  0.5125E-03
     -8.143  0.7952E-01  0.4771E-03  0.4038E-03
     -8.059  0.4462E-01  0.2677E-03  0.2266E-03
     -7.975  0.1783E-01  0.1070E-03  0.9055E-04
     -7.892  0.5073E-02  0.3044E-04  0.2576E-04
     -7.808  0.1027E-02  0.6234E-05  0.5256E-05
     -7.725  0.1523E-03  0.1651E-05  0.1188E-05
     -7.641  0.4850E-04  0.5823E-05  0.3357E-05
     -7.558  0.1798E-03  0.3067E-04  0.1754E-04
     -7.474  0.6879E-03  0.1175E-03  0.6689E-04
     -7.390  0.1942E-02  0.3268E-03  0.1837E-03
     -7.307  0.4279E-02  0.6893E-03  0.3727E-03
     -7.223  0.8361E-02  0.1225E-02  0.5992E-03
     -7.140  0.1638E-01  0.2136E-02  0.8793E-03
     -7.056  0.3071E-01  0.3815E-02  0.1328E-02
     -6.973  0.4786E-01  0.6440E-02  0.1995E-02
     -6.889  0.5726E-01  0.1020E-01  0.2816E-02
     -6.805  0.5355E-01  0.1629E-01  0.3943E-02
     -6.722  0.4814E-01  0.2571E-01  0.5771E-02
     -6.638  0.6671E-01  0.3593E-01  0.8557E-02
     -6.555  0.1372E+00  0.4190E-01  0.1265E-01
     -6.471  0.2601E+00  0.4189E-01  0.1840E-01
     -6.387  0.3738E+00  0.3836E-01  0.2406E-01
     -6.304  0.3892E+00  0.3308E-01  0.2544E-01
     -6.220  0.2914E+00  0.2769E-01  0.2054E-01
     -6.137  0.1603E+00  0.2796E-01  0.1291E-01
     -6.053  0.7612E-01  0.3926E-01  0.7595E-02
     -5.970  0.5448E-01  0.5612E-01  0.5962E-02
     -5.886  0.6897E-01  0.6396E-01  0.6350E-02
     -5.802  0.9042E-01  0.5564E-01  0.7718E-02
     -5.719  0.1040E+00  0.3955E-01  0.1070E-01
     -5.635  0.1098E+00  0.2717E-01  0.1528E-01
     -5.552  0.1108E+00  0.2110E-01  0.1906E-01
     -5.468  0.1038E+00  0.1754E-01  0.1920E-01
     -5.385  0.8354E-01  0.1348E-01  0.1585E-01
     -5.301  0.5513E-01  0.9202E-02  0.1371E-01
     -5.217  0.3234E-01  0.7136E-02  0.2066E-01
     -5.134  0.2486E-01  0.9623E-02  0.4334E-01
     -5.050  0.3091E-01  0.1748E-01  0.7977E-01
     -4.967  0.4145E-01  0.3021E-01  0.1148E+00
     -4.883  0.4887E-01  0.4609E-01  0.1285E+00
     -4.800  0.5158E-01  0.5990E-01  0.1148E+00
     -4.716  0.5200E-01  0.6288E-01  0.9016E-01
     -4.632  0.5346E-01  0.5100E-01  0.8651E-01
     -4.549  0.5980E-01  0.3168E-01  0.1427E+00
     -4.465  0.7570E-01  0.1664E-01  0.2971E+00
     -4.382  0.1023E+00  0.1105E-01  0.5456E+00
     -4.298  0.1282E+00  0.1362E-01  0.7866E+00
     -4.214  0.1351E+00  0.2392E-01  0.8844E+00
     -4.131  0.1261E+00  0.4616E-01  0.8351E+00
     -4.047  0.1291E+00  0.8388E-01  0.7814E+00
     -3.964  0.1594E+00  0.1307E+00  0.8457E+00
     -3.880  0.1987E+00  0.1710E+00  0.1050E+01
     -3.797  0.2177E+00  0.1935E+00  0.1379E+01
     -3.713  0.2045E+00  0.1976E+00  0.1790E+01
     -3.629  0.1647E+00  0.1868E+00  0.2159E+01
     -3.546  0.1131E+00  0.1629E+00  0.2309E+01
     -3.462  0.6590E-01  0.1316E+00  0.2177E+01
     -3.379  0.3351E-01  0.1074E+00  0.1911E+01
     -3.295  0.1613E-01  0.1055E+00  0.1752E+01
     -3.212  0.8312E-02  0.1266E+00  0.1788E+01
     -3.128  0.5274E-02  0.1500E+00  0.1893E+01
     -3.044  0.4502E-02  0.1518E+00  0.1903E+01
     -2.961  0.4782E-02  0.1284E+00  0.1812E+01
     -2.877  0.5759E-02  0.9870E-01  0.1777E+01
     -2.794  0.7717E-02  0.8343E-01  0.1930E+01
     -2.710  0.1067E-01  0.8808E-01  0.2225E+01
     -2.626  0.1362E-01  0.1031E+00  0.2493E+01
     -2.543  0.1518E-01  0.1164E+00  0.2602E+01
     -2.459  0.1505E-01  0.1239E+00  0.2519E+01
     -2.376  0.1446E-01  0.1282E+00  0.2301E+01
     -2.292  0.1490E-01  0.1287E+00  0.2087E+01
     -2.209  0.1643E-01  0.1225E+00  0.2011E+01
     -2.125  0.1799E-01  0.1126E+00  0.2104E+01
     -2.041  0.1909E-01  0.1072E+00  0.2301E+01
     -1.958  0.2017E-01  0.1076E+00  0.2497E+01
     -1.874  0.2130E-01  0.1086E+00  0.2620E+01
     -1.791  0.2197E-01  0.1084E+00  0.2698E+01
     -1.707  0.2179E-01  0.1112E+00  0.2790E+01
     -1.624  0.2072E-01  0.1191E+00  0.2831E+01
     -1.540  0.1875E-01  0.1262E+00  0.2699E+01
     -1.456  0.1611E-01  0.1248E+00  0.2445E+01
     -1.373  0.1349E-01  0.1145E+00  0.2264E+01
     -1.289  0.1154E-01  0.9991E-01  0.2241E+01
     -1.206  0.1028E-01  0.8368E-01  0.2269E+01
     -1.122  0.9501E-02  0.6661E-01  0.2223E+01
     -1.039  0.9097E-02  0.5081E-01  0.2084E+01
     -0.955  0.8824E-02  0.3863E-01  0.1904E+01
     -0.871  0.8341E-02  0.3065E-01  0.1754E+01
     -0.788  0.7704E-02  0.2634E-01  0.1696E+01
     -0.704  0.7330E-02  0.2524E-01  0.1717E+01
     -0.621  0.7390E-02  0.2744E-01  0.1719E+01
     -0.537  0.7648E-02  0.3322E-01  0.1644E+01
     -0.453  0.8035E-02  0.4189E-01  0.1539E+01
     -0.370  0.8904E-02  0.5079E-01  0.1473E+01
     -0.286  0.1035E-01  0.5589E-01  0.1465E+01
     -0.203  0.1157E-01  0.5451E-01  0.1507E+01
     -0.119  0.1149E-01  0.4780E-01  0.1574E+01
     -0.036  0.9960E-02  0.3977E-01  0.1607E+01
      0.048  0.7875E-02  0.3391E-01  0.1557E+01
      0.132  0.6253E-02  0.3155E-01  0.1441E+01
      0.215  0.5688E-02  0.3223E-01  0.1297E+01
      0.299  0.6544E-02  0.3439E-01  0.1131E+01
      0.382  0.8695E-02  0.3605E-01  0.9250E+00
      0.466  0.1077E-01  0.3543E-01  0.6865E+00
      0.549  0.1087E-01  0.3198E-01  0.4538E+00
      0.633  0.8824E-02  0.2714E-01  0.2669E+00
      0.717  0.6995E-02  0.2320E-01  0.1442E+00
      0.800  0.8156E-02  0.2192E-01  0.7877E-01
      0.884  0.1262E-01  0.2543E-01  0.5096E-01
      0.967  0.1731E-01  0.3650E-01  0.4201E-01
      1.051  0.1878E-01  0.5572E-01  0.3996E-01
      1.135  0.1741E-01  0.7842E-01  0.4050E-01
      1.218  0.1667E-01  0.9530E-01  0.4308E-01
      1.302  0.1824E-01  0.9774E-01  0.4554E-01
      1.385  0.2077E-01  0.8445E-01  0.4469E-01
      1.469  0.2245E-01  0.6284E-01  0.4039E-01
      1.552  0.2204E-01  0.4213E-01  0.3417E-01
      1.636  0.1841E-01  0.2615E-01  0.2608E-01
      1.720  0.1217E-01  0.1445E-01  0.1649E-01
      1.803  0.6035E-02  0.6546E-02  0.8028E-02
      1.887  0.2185E-02  0.2271E-02  0.2883E-02
      1.970  0.5696E-03  0.5807E-03  0.7491E-03
      2.054  0.1062E-03  0.1073E-03  0.1395E-03
      2.137  0.1412E-04  0.1421E-04  0.1853E-04
      2.221  0.1336E-05  0.1341E-05  0.1753E-05
      2.305  0.8989E-07  0.9014E-07  0.1179E-06
      2.388  0.4295E-08  0.4305E-08  0.5634E-08
      2.472  0.1457E-09  0.1460E-09  0.1911E-09
      2.555  0.3505E-11  0.3512E-11  0.4597E-11
      2.639  0.5979E-13  0.5990E-13  0.7842E-13
      2.723  0.7226E-15  0.7238E-15  0.9477E-15
      2.806  0.7527E-17  0.7540E-17  0.9872E-17
      2.890  0.0000E+00  0.0000E+00  0.0000E+00
      2.973  0.0000E+00  0.0000E+00  0.0000E+00
      3.057  0.0000E+00  0.0000E+00  0.0000E+00
      3.140  0.0000E+00  0.0000E+00  0.0000E+00
      3.224  0.0000E+00  0.0000E+00  0.0000E+00
      3.308  0.0000E+00  0.0000E+00  0.0000E+00
      3.391  0.0000E+00  0.0000E+00  0.0000E+00
      3.475  0.0000E+00  0.0000E+00  0.0000E+00
      3.558  0.0000E+00  0.0000E+00  0.0000E+00
      3.55828661    -21.51511688  301     -0.15363384      1.00000000
    -21.515  0.0000E+00  0.0000E+00  0.0000E+00
    -21.432  0.0000E+00  0.0000E+00  0.0000E+00
    -21.348  0.0000E+00  0.0000E+00  0.0000E+00
    -21.264  0.0000E+00  0.0000E+00  0.0000E+00
    -21.181  0.0000E+00  0.0000E+00  0.0000E+00
    -21.097  0.0000E+00  0.0000E+00  0.0000E+00
    -21.014  0.0000E+00  0.0000E+00  0.0000E+00
    -20.930  0.0000E+00  0.0000E+00  0.0000E+00
    -20.846  0.0000E+00  0.0000E+00  0.0000E+00
    -20.763  0.0000E+00  0.0000E+00  0.0000E+00
    -20.679  0.1153E-22  0.7269E-23  0.1918E-23
    -20.596  0.1107E-20  0.6979E-21  0.1842E-21
    -20.512  0.9158E-19  0.5774E-19  0.1524E-19
    -20.429  0.5368E-17  0.3385E-17  0.8932E-18
    -20.345  0.2231E-15  0.1407E-15  0.3712E-16
    -20.261  0.6577E-14  0.4147E-14  0.1094E-14
    -20.178  0.1376E-12  0.8676E-13  0.2289E-13
    -20.094  0.2044E-11  0.1289E-11  0.3401E-12
    -20.011  0.2158E-10  0.1361E-10  0.3591E-11
    -19.927  0.1619E-09  0.1021E-09  0.2696E-10
    -19.844  0.8651E-09  0.5457E-09  0.1443E-09
    -19.760  0.3296E-08  0.2081E-08  0.5524E-09
    -19.676  0.9015E-08  0.5708E-08  0.1535E-08
    -19.593  0.1805E-07  0.1154E-07  0.3223E-08
    -19.509  0.2817E-07  0.1847E-07  0.5693E-08
    -19.426  0.3988E-07  0.2749E-07  0.9979E-08
    -19.342  0.6075E-07  0.4402E-07  0.1822E-07
    -19.259  0.9529E-07  0.7031E-07  0.3027E-07
    -19.175  0.1287E-06  0.9461E-07  0.4022E-07
    -19.091  0.1342E-06  0.9773E-07  0.4038E-07
    -19.008  0.1038E-06  0.7489E-07  0.3003E-07
    -18.924  0.5871E-07  0.4201E-07  0.1639E-07
    -18.841  0.2410E-07  0.1713E-07  0.6527E-08
    -18.757  0.7140E-08  0.5049E-08  0.1886E-08
    -18.673  0.1521E-08  0.1071E-08  0.3940E-09
    -18.590  0.2324E-09  0.1631E-09  0.5923E-10
    -18.506  0.2539E-10  0.1778E-10  0.6388E-11
    -18.423  0.1979E-11  0.1383E-11  0.4931E-12
    -18.339  0.1100E-12  0.7674E-13  0.2717E-13
    -18.256  0.4347E-14  0.3030E-14  0.1067E-14
    -18.172  0.1221E-15  0.8506E-16  0.2984E-16
    -18.088  0.2437E-17  0.1696E-17  0.5930E-18
    -18.005  0.3450E-19  0.2400E-19  0.8369E-20
    -17.921  0.3401E-21  0.2360E-21  0.8142E-22
    -17.838  0.0000E+00  0.0000E+00  0.0000E+00
    -17.754  0.0000E+00  0.0000E+00  0.0000E+00
    -17.671  0.0000E+00  0.0000E+00  0.0000E+00
    -17.587  0.0000E+00  0.0000E+00  0.0000E+00
    -17.503  0.0000E+00  0.0000E+00  0.0000E+00
    -17.420  0.0000E+00  0.0000E+00  0.0000E+00
    -17.336  0.0000E+00  0.0000E+00  0.0000E+00
    -17.253  0.0000E+00  0.0000E+00  0.0000E+00
    -17.169  0.0000E+00  0.0000E+00  0.0000E+00
    -17.085  0.0000E+00  0.0000E+00  0.0000E+00
    -17.002  0.0000E+00  0.0000E+00  0.0000E+00
    -16.918  0.0000E+00  0.0000E+00  0.0000E+00
    -16.835  0.0000E+00  0.0000E+00  0.0000E+00
    -16.751  0.0000E+00  0.0000E+00  0.0000E+00
    -16.668  0.0000E+00  0.0000E+00  0.0000E+00
    -16.584  0.0000E+00  0.0000E+00  0.0000E+00
    -16.500  0.0000E+00  0.0000E+00  0.0000E+00
    -16.417  0.0000E+00  0.0000E+00  0.0000E+00
    -16.333  0.0000E+00  0.0000E+00  0.0000E+00
    -16.250  0.0000E+00  0.0000E+00  0.0000E+00
    -16.166  0.0000E+00  0.0000E+00  0.0000E+00
    -16.083  0.0000E+00  0.0000E+00  0.0000E+00
    -15.999  0.0000E+00  0.0000E+00  0.0000E+00
    -15.915  0.0000E+00  0.0000E+00  0.0000E+00
    -15.832  0.0000E+00  0.0000E+00  0.0000E+00
    -15.748  0.0000E+00  0.0000E+00  0.0000E+00
    -15.665  0.0000E+00  0.0000E+00  0.0000E+00
    -15.581  0.0000E+00  0.0000E+00  0.0000E+00
    -15.498  0.0000E+00  0.0000E+00  0.0000E+00
    -15.414  0.0000E+00  0.0000E+00  0.0000E+00
    -15.330  0.0000E+00  0.0000E+00  0.0000E+00
    -15.247  0.0000E+00  0.0000E+00  0.0000E+00
    -15.163  0.0000E+00  0.0000E+00  0.0000E+00
    -15.080  0.0000E+00  0.0000E+00  0.0000E+00
    -14.996  0.0000E+00  0.0000E+00  0.0000E+00
    -14.912  0.0000E+00  0.0000E+00  0.0000E+00
    -14.829  0.0000E+00  0.0000E+00  0.0000E+00
    -14.745  0.0000E+00  0.0000E+00  0.0000E+00
    -14.662  0.0000E+00  0.0000E+00  0.0000E+00
    -14.578  0.0000E+00  0.0000E+00  0.0000E+00
    -14.495  0.0000E+00  0.0000E+00  0.0000E+00
    -14.411  0.0000E+00  0.0000E+00  0.0000E+00
    -14.327  0.0000E+00  0.0000E+00  0.0000E+00
    -14.244  0.0000E+00  0.0000E+00  0.0000E+00
    -14.160  0.0000E+00  0.0000E+00  0.0000E+00
    -14.077  0.0000E+00  0.0000E+00  0.0000E+00