       N       E                     dE             d eps       ncg     rms          rms(c)
DAV:   1     0.563363824621E+04    0.56336E+04   -0.30584E+05   732   0.201E+03
DAV:   2     0.231556814805E+03   -0.54021E+04   -0.52704E+04   732   0.444E+02
DAV:   3    -0.344762089661E+03   -0.57632E+03   -0.51345E+03   750   0.189E+02
DAV:   4    -0.436197971007E+03   -0.91436E+02   -0.84513E+02  1437   0.498E+01
DAV:   5    -0.447344808260E+03   -0.11147E+02   -0.10389E+02  1140   0.160E+01    0.333E+01
RMM:   6    -0.698501343417E+03   -0.25116E+03   -0.42114E+02   870   0.458E+01    0.155E+02
RMM:   7    -0.520401863368E+03    0.17810E+03   -0.20086E+02   733   0.435E+01    0.110E+02
RMM:   8    -0.452558655088E+03    0.67843E+02   -0.62175E+01   737   0.213E+01    0.453E+01
RMM:   9    -0.445784861372E+03    0.67738E+01   -0.14954E+01   902   0.639E+00    0.277E+01
RMM:  10    -0.445943696897E+03   -0.15884E+00   -0.51357E+00   792   0.474E+00    0.304E+01
RMM:  11    -0.445970969441E+03   -0.27273E-01   -0.46562E+00   787   0.470E+00    0.274E+01
RMM:  12    -0.450378359785E+03   -0.44074E+01   -0.10308E+01   737   0.818E+00    0.420E+01
RMM:  13    -0.455207887948E+03   -0.48295E+01   -0.15743E+01   737   0.105E+01    0.551E+01
RMM:  14    -0.447945465839E+03    0.72624E+01   -0.11123E+01   736   0.985E+00    0.330E+01
RMM:  15    -0.445043131921E+03    0.29023E+01   -0.31968E+00   734   0.479E+00    0.202E+01
RMM:  16    -0.444360365279E+03    0.68277E+00   -0.17756E+00   739   0.333E+00    0.152E+01
RMM:  17    -0.444408242622E+03   -0.47877E-01   -0.10402E+00   739   0.262E+00    0.169E+01
RMM:  18    -0.443842010633E+03    0.56623E+00   -0.56168E-01   744   0.215E+00    0.957E+00
RMM:  19    -0.443755839046E+03    0.86172E-01   -0.27007E-01   736   0.146E+00    0.875E+00
RMM:  20    -0.443717568440E+03    0.38271E-01   -0.18580E-01   742   0.112E+00    0.776E+00
RMM:  21    -0.443664328919E+03    0.53240E-01   -0.10992E-01   738   0.903E-01    0.702E+00
RMM:  22    -0.443589737657E+03    0.74591E-01   -0.68471E-02   743   0.704E-01    0.529E+00
RMM:  23    -0.443569084049E+03    0.20654E-01   -0.24224E-02   813   0.311E-01    0.456E+00
RMM:  24    -0.443567743450E+03    0.13406E-02   -0.46355E-02   745   0.525E-01    0.463E+00
RMM:  25    -0.443534252913E+03    0.33491E-01   -0.31007E-02   746   0.465E-01    0.304E+00
RMM:  26    -0.443523164268E+03    0.11089E-01   -0.26012E-02   748   0.405E-01    0.247E+00
RMM:  27    -0.443532109749E+03   -0.89455E-02   -0.27942E-02   740   0.403E-01    0.303E+00
RMM:  28    -0.443516449820E+03    0.15660E-01   -0.22465E-02   739   0.403E-01    0.199E+00
RMM:  29    -0.443508609106E+03    0.78407E-02   -0.97613E-03   743   0.253E-01    0.121E+00
RMM:  30    -0.443509300209E+03   -0.69110E-03   -0.81559E-03   779   0.201E-01    0.125E+00
RMM:  31    -0.443507427874E+03    0.18723E-02   -0.58535E-03   761   0.178E-01    0.103E+00
RMM:  32    -0.443504885247E+03    0.25426E-02   -0.28512E-03   751   0.128E-01    0.496E-01
RMM:  33    -0.443504851665E+03    0.33582E-04   -0.18315E-03   763   0.959E-02    0.482E-01
RMM:  34    -0.443505028390E+03   -0.17672E-03   -0.15034E-03   761   0.910E-02    0.476E-01
RMM:  35    -0.443504486222E+03    0.54217E-03   -0.90310E-04   739   0.811E-02    0.283E-01
RMM:  36    -0.443504394452E+03    0.91770E-04   -0.45412E-04   753   0.505E-02    0.216E-01
RMM:  37    -0.443504516837E+03   -0.12238E-03   -0.37149E-04   739   0.479E-02    0.267E-01
RMM:  38    -0.443504362792E+03    0.15404E-03   -0.19622E-04   742   0.390E-02    0.154E-01
RMM:  39    -0.443504319001E+03    0.43791E-04   -0.10069E-04   756   0.250E-02    0.878E-02
RMM:  40    -0.443504345640E+03   -0.26639E-04   -0.81908E-05   747   0.211E-02    0.104E-01
RMM:  41    -0.443504345308E+03    0.33213E-06   -0.47789E-05   735   0.181E-02    0.691E-02
RMM:  42    -0.443504342261E+03    0.30473E-05   -0.24313E-05   747   0.125E-02    0.469E-02
RMM:  43    -0.443504351537E+03   -0.92766E-05   -0.18464E-05   741   0.102E-02    0.458E-02
RMM:  44    -0.443504368748E+03   -0.17211E-04   -0.12975E-05   733   0.935E-03    0.441E-02
RMM:  45    -0.443504370200E+03   -0.14520E-05   -0.60305E-06   598   0.713E-03    0.204E-02
RMM:  46    -0.443504374552E+03   -0.43519E-05   -0.29543E-06   463   0.479E-03    0.156E-02
RMM:  47    -0.443504386972E+03   -0.12420E-04   -0.26621E-06   440   0.493E-03    0.209E-02
RMM:  48    -0.443504393234E+03   -0.62616E-05   -0.17492E-06   411   0.453E-03    0.122E-02
RMM:  49    -0.443504396273E+03   -0.30395E-05   -0.75195E-07   398   0.259E-03    0.849E-03
RMM:  50    -0.443504405388E+03   -0.91142E-05   -0.98866E-07   398   0.284E-03    0.122E-02
RMM:  51    -0.443504412439E+03   -0.70515E-05   -0.84248E-07   397   0.296E-03    0.857E-03
RMM:  52    -0.443504416178E+03   -0.37388E-05   -0.48610E-07   395   0.209E-03    0.583E-03
RMM:  53    -0.443504424800E+03   -0.86218E-05   -0.72312E-07   394   0.213E-03    0.889E-03
RMM:  54    -0.443504430964E+03   -0.61647E-05   -0.64248E-07   391   0.228E-03    0.632E-03
RMM:  55    -0.443504433800E+03   -0.28358E-05   -0.35852E-07   388   0.167E-03    0.358E-03
RMM:  56    -0.443504437415E+03   -0.36146E-05   -0.37316E-07   384   0.159E-03    0.874E-03
RMM:  57    -0.443504442090E+03   -0.46756E-05   -0.50946E-07   383   0.192E-03    0.506E-03
RMM:  58    -0.443504444474E+03   -0.23836E-05   -0.24865E-07   375   0.125E-03    0.324E-03
RMM:  59    -0.443504446065E+03   -0.15910E-05   -0.13085E-07   369   0.101E-03    0.320E-03
RMM:  60    -0.443504448643E+03   -0.25781E-05   -0.12700E-07   372   0.897E-04    0.323E-03
RMM:  61    -0.443504449476E+03   -0.83313E-06   -0.17610E-07   375   0.124E-03
   1 F= -.45924423E+03 E0= -.45775889E+03  d E =-.297068E+01
       N       E                     dE             d eps       ncg     rms          rms(c)
DAV:   1    -0.443495236848E+03    0.92118E-02   -0.12659E+00   738   0.158E+00    0.292E-01
RMM:   2    -0.443509342371E+03   -0.14106E-01   -0.38175E-02   801   0.329E-01    0.203E+00
RMM:   3    -0.443500323393E+03    0.90190E-02   -0.70167E-03   738   0.215E-01    0.976E-01
RMM:   4    -0.443506349649E+03   -0.60263E-02   -0.51469E-03   747   0.172E-01    0.183E+00
RMM:   5    -0.443498788425E+03    0.75612E-02   -0.30997E-03   738   0.154E-01    0.770E-01
RMM:   6    -0.443497180572E+03    0.16079E-02   -0.97565E-04   740   0.892E-02    0.263E-01
RMM:   7    -0.443497591524E+03   -0.41095E-03   -0.72064E-04   737   0.678E-02    0.473E-01
RMM:   8    -0.443497317909E+03    0.27361E-03   -0.58093E-04   738   0.648E-02    0.314E-01
RMM:   9    -0.443497117163E+03    0.20075E-03   -0.43684E-04   734   0.605E-02    0.238E-01
RMM:  10    -0.443497106155E+03    0.11008E-04   -0.32676E-04   735   0.484E-02    0.222E-01
RMM:  11    -0.443497395547E+03   -0.28939E-03   -0.45059E-04   737   0.546E-02    0.385E-01
RMM:  12    -0.443497070442E+03    0.32510E-03   -0.26306E-04   741   0.475E-02    0.185E-01
RMM:  13    -0.443496982193E+03    0.88249E-04   -0.11013E-04   730   0.300E-02    0.833E-02
RMM:  14    -0.443496988850E+03   -0.66566E-05   -0.64838E-05   731   0.207E-02    0.932E-02
RMM:  15    -0.443496981171E+03    0.76793E-05   -0.33076E-05   742   0.159E-02    0.801E-02
RMM:  16    -0.443496963973E+03    0.17198E-04   -0.15604E-05   730   0.116E-02    0.340E-02
RMM:  17    -0.443496962458E+03    0.15150E-05   -0.55087E-06   593   0.637E-03    0.230E-02
RMM:  18    -0.443496966859E+03   -0.44007E-05   -0.65528E-06   648   0.677E-03    0.381E-02
RMM:  19    -0.443496964295E+03    0.25641E-05   -0.34159E-06   487   0.589E-03    0.217E-02
RMM:  20    -0.443496963323E+03    0.97192E-06   -0.16499E-06   380   0.434E-03
   2 F= -.45923669E+03 E0= -.45775112E+03  d E =-.297114E+01
       N       E                     dE             d eps       ncg     rms          rms(c)
DAV:   1    -0.443498138665E+03   -0.11744E-02   -0.50278E+00   732   0.315E+00    0.603E-01
RMM:   2    -0.443556840997E+03   -0.58702E-01   -0.17528E-01   798   0.695E-01    0.392E+00
RMM:   3    -0.443522020039E+03    0.34821E-01   -0.29700E-02   739   0.439E-01    0.216E+00
RMM:   4    -0.443544103524E+03   -0.22083E-01   -0.21252E-02   746   0.355E-01    0.368E+00
RMM:   5    -0.443513418317E+03    0.30685E-01   -0.13543E-02   739   0.321E-01    0.158E+00
RMM:   6    -0.443506832334E+03    0.65860E-02   -0.42126E-03   739   0.184E-01    0.551E-01
RMM:   7    -0.443508567324E+03   -0.17350E-02   -0.30512E-03   740   0.139E-01    0.100E+00
RMM:   8    -0.443507302268E+03    0.12651E-02   -0.24703E-03   737   0.134E-01    0.645E-01
RMM:   9    -0.443506419326E+03    0.88294E-03   -0.18034E-03   736   0.123E-01    0.485E-01
RMM:  10    -0.443506365118E+03    0.54208E-04   -0.13712E-03   737   0.988E-02    0.450E-01
RMM:  11    -0.443507660436E+03   -0.12953E-02   -0.19097E-03   738   0.112E-01    0.809E-01
RMM:  12    -0.443506195634E+03    0.14648E-02   -0.11474E-03   742   0.989E-02    0.360E-01
RMM:  13    -0.443505860909E+03    0.33473E-03   -0.49440E-04   736   0.631E-02    0.192E-01
RMM:  14    -0.443505855575E+03    0.53344E-05   -0.28473E-04   737   0.438E-02    0.183E-01
RMM:  15    -0.443505841092E+03    0.14483E-04   -0.14998E-04   747   0.335E-02    0.181E-01
RMM:  16    -0.443505752714E+03    0.88378E-04   -0.65178E-05   736   0.239E-02    0.675E-02
RMM:  17    -0.443505746281E+03    0.64328E-05   -0.24724E-05   728   0.132E-02    0.476E-02
RMM:  18    -0.443505759760E+03   -0.13479E-04   -0.26671E-05   728   0.129E-02    0.752E-02
RMM:  19    -0.443505748597E+03    0.11163E-04   -0.15966E-05   729   0.114E-02    0.468E-02
RMM:  20    -0.443505742888E+03    0.57090E-05   -0.76146E-06   671   0.799E-03    0.217E-02
RMM:  21    -0.443505743613E+03   -0.72506E-06   -0.35927E-06   500   0.522E-03
   3 F= -.45924558E+03 E0= -.45776040E+03  d E =-.297037E+01
       N       E                     dE             d eps       ncg     rms          rms(c)
DAV:   1    -0.443499587403E+03    0.61555E-02   -0.25232E+00   732   0.219E+00    0.447E-01
RMM:   2    -0.443527083559E+03   -0.27496E-01   -0.76505E-02   811   0.464E-01    0.284E+00
RMM:   3    -0.443510299705E+03    0.16784E-01   -0.16366E-02   738   0.325E-01    0.150E+00
RMM:   4    -0.443525635563E+03   -0.15336E-01   -0.12730E-02   748   0.272E-01    0.286E+00
RMM:   5    -0.443507038989E+03    0.18597E-01   -0.78303E-03   738   0.245E-01    0.118E+00
RMM:   6    -0.443503158199E+03    0.38808E-02   -0.24673E-03   740   0.143E-01    0.437E-01
RMM:   7    -0.443503960843E+03   -0.80264E-03   -0.18776E-03   738   0.109E-01    0.708E-01
RMM:   8    -0.443503647188E+03    0.31365E-03   -0.15861E-03   738   0.105E-01    0.560E-01
RMM:   9    -0.443502948700E+03    0.69849E-03   -0.11797E-03   737   0.987E-02    0.389E-01
RMM:  10    -0.443502748899E+03    0.19980E-03   -0.69304E-04   733   0.709E-02    0.295E-01
RMM:  11    -0.443503232968E+03   -0.48407E-03   -0.91132E-04   738   0.782E-02    0.487E-01
RMM:  12    -0.443502827662E+03    0.40531E-03   -0.58752E-04   744   0.689E-02    0.313E-01
RMM:  13    -0.443502582492E+03    0.24517E-03   -0.29532E-04   734   0.497E-02    0.172E-01
RMM:  14    -0.443502535108E+03    0.47384E-04   -0.13474E-04   730   0.308E-02    0.116E-01
RMM:  15    -0.443502552940E+03   -0.17832E-04   -0.86957E-05   739   0.242E-02    0.138E-01
RMM:  16    -0.443502505250E+03    0.47690E-04   -0.43777E-05   741   0.195E-02    0.640E-02
RMM:  17    -0.443502494606E+03    0.10643E-04   -0.15666E-05   728   0.111E-02    0.296E-02
RMM:  18    -0.443502499798E+03   -0.51922E-05   -0.11074E-05   713   0.843E-03    0.463E-02
RMM:  19    -0.443502499434E+03    0.36447E-06   -0.90580E-06   698   0.822E-03
   4 F= -.45924227E+03 E0= -.45775686E+03  d E =-.297082E+01
       N       E                     dE             d eps       ncg     rms          rms(c)
DAV:   1    -0.443492656987E+03    0.98428E-02   -0.50272E+00   732   0.322E+00    0.458E-01
RMM:   2    -0.443514854980E+03   -0.22198E-01   -0.15695E-01   836   0.623E-01    0.171E+00
RMM:   3    -0.443516233219E+03   -0.13782E-02   -0.15383E-02   742   0.306E-01    0.200E+00
RMM:   4    -0.443527666697E+03   -0.11433E-01   -0.13753E-02   741   0.290E-01    0.290E+00
RMM:   5    -0.443507166185E+03    0.20501E-01   -0.79828E-03   739   0.257E-01    0.959E-01
RMM:   6    -0.443504384998E+03    0.27812E-02   -0.27139E-03   741   0.146E-01    0.481E-01
RMM:   7    -0.443504792707E+03   -0.40771E-03   -0.18877E-03   735   0.108E-01    0.654E-01
RMM:   8    -0.443504751589E+03    0.41119E-04   -0.14206E-03   738   0.101E-01    0.612E-01
RMM:   9    -0.443503998984E+03    0.75260E-03   -0.11257E-03   736   0.970E-02    0.422E-01
RMM:  10    -0.443503936940E+03    0.62044E-04   -0.95270E-04   737   0.845E-02    0.403E-01
RMM:  11    -0.443505015378E+03   -0.10784E-02   -0.16586E-03   737   0.105E-01    0.707E-01
RMM:  12    -0.443503946516E+03    0.10689E-02   -0.10809E-03   738   0.960E-02    0.388E-01
RMM:  13    -0.443503551443E+03    0.39507E-03   -0.43050E-04   735   0.596E-02    0.195E-01
RMM:  14    -0.443503489274E+03    0.62169E-04   -0.19652E-04   734   0.369E-02    0.132E-01
RMM:  15    -0.443503522283E+03   -0.33009E-04   -0.11936E-04   741   0.282E-02    0.175E-01
RMM:  16    -0.443503448076E+03    0.74207E-04   -0.55794E-05   737   0.217E-02    0.705E-02
RMM:  17    -0.443503437375E+03    0.10700E-04   -0.23663E-05   728   0.134E-02    0.426E-02
RMM:  18    -0.443503441888E+03   -0.45130E-05   -0.18069E-05   726   0.110E-02    0.526E-02
RMM:  19    -0.443503444789E+03   -0.29002E-05   -0.14803E-05   727   0.103E-02    0.583E-02
RMM:  20    -0.443503436088E+03    0.87005E-05   -0.84281E-06   699   0.867E-03    0.266E-02
RMM:  21    -0.443503435449E+03    0.63941E-06   -0.34381E-06   488   0.539E-03
   5 F= -.45924323E+03 E0= -.45775787E+03  d E =-.297072E+01
       N       E                     dE             d eps       ncg     rms          rms(c)
DAV:   1    -0.443491598138E+03    0.11838E-01   -0.25142E+00   732   0.220E+00    0.412E-01
RMM:   2    -0.443536695025E+03   -0.45097E-01   -0.88756E-02   764   0.556E-01    0.375E+00
RMM:   3    -0.443502669124E+03    0.34026E-01   -0.16593E-02   738   0.356E-01    0.134E+00
RMM:   4    -0.443506153153E+03   -0.34840E-02   -0.85349E-03   744   0.222E-01    0.190E+00
RMM:   5    -0.443499310674E+03    0.68425E-02   -0.51761E-03   739   0.191E-01    0.111E+00
RMM:   6    -0.443496141408E+03    0.31693E-02   -0.17632E-03   739   0.124E-01    0.428E-01
RMM:   7    -0.443496390840E+03   -0.24943E-03   -0.10686E-03   736   0.837E-02    0.551E-01
RMM:   8    -0.443496900042E+03   -0.50920E-03   -0.13940E-03   738   0.964E-02    0.645E-01
RMM:   9    -0.443496455606E+03    0.44444E-03   -0.15866E-03   738   0.113E-01    0.561E-01
RMM:  10    -0.443496583984E+03   -0.12838E-03   -0.17043E-03   736   0.113E-01    0.600E-01
RMM:  11    -0.443497845762E+03   -0.12618E-02   -0.26631E-03   738   0.134E-01    0.852E-01
RMM:  12    -0.443496413880E+03    0.14319E-02   -0.17358E-03   739   0.121E-01    0.537E-01
RMM:  13    -0.443495665304E+03    0.74858E-03   -0.65755E-04   737   0.733E-02    0.233E-01
RMM:  14    -0.443495571287E+03    0.94017E-04   -0.29951E-04   734   0.451E-02    0.165E-01
RMM:  15    -0.443495597314E+03   -0.26027E-04   -0.16483E-04   741   0.326E-02    0.186E-01
RMM:  16    -0.443495526509E+03    0.70806E-04   -0.89619E-05   741   0.266E-02    0.101E-01
RMM:  17    -0.443495502611E+03    0.23898E-04   -0.35407E-05   732   0.167E-02    0.520E-02
RMM:  18    -0.443495510238E+03   -0.76278E-05   -0.27412E-05   730   0.133E-02    0.589E-02
RMM:  19    -0.443495522945E+03   -0.12707E-04   -0.22703E-05   731   0.124E-02    0.731E-02
RMM:  20    -0.443495513559E+03    0.93863E-05   -0.12951E-05   729   0.106E-02    0.306E-02
RMM:  21    -0.443495513573E+03   -0.14625E-07   -0.44958E-06   542   0.591E-03
   6 F= -.45923509E+03 E0= -.45774961E+03  d E =-.297096E+01
       N       E                     dE             d eps       ncg     rms          rms(c)
DAV:   1    -0.443497942709E+03   -0.24292E-02   -0.50168E+00   732   0.317E+00    0.652E-01
RMM:   2    -0.443622959376E+03   -0.12502E+00   -0.23046E-01   748   0.913E-01    0.597E+00
RMM:   3    -0.443522771187E+03    0.10019E+00   -0.35751E-02   740   0.541E-01    0.188E+00
RMM:   4    -0.443520585557E+03    0.21856E-02   -0.13005E-02   744   0.276E-01    0.201E+00
RMM:   5    -0.443518363075E+03    0.22225E-02   -0.98573E-03   738   0.251E-01    0.197E+00
RMM:   6    -0.443510749931E+03    0.76131E-02   -0.46185E-03   741   0.198E-01    0.985E-01
RMM:   7    -0.443516684139E+03   -0.59342E-02   -0.62660E-03   739   0.202E-01    0.181E+00
RMM:   8    -0.443514713993E+03    0.19701E-02   -0.90889E-03   738   0.248E-01    0.143E+00
RMM:   9    -0.443510202202E+03    0.45118E-02   -0.65016E-03   738   0.235E-01    0.889E-01
RMM:  10    -0.443510814907E+03   -0.61270E-03   -0.62854E-03   738   0.204E-01    0.968E-01
RMM:  11    -0.443512246704E+03   -0.14318E-02   -0.52036E-03   741   0.191E-01    0.117E+00
RMM:  12    -0.443508866178E+03    0.33805E-02   -0.29290E-03   741   0.160E-01    0.590E-01
RMM:  13    -0.443507930051E+03    0.93613E-03   -0.98208E-04   734   0.875E-02    0.262E-01
RMM:  14    -0.443508029937E+03   -0.99886E-04   -0.55333E-04   739   0.587E-02    0.324E-01
RMM:  15    -0.443507893726E+03    0.13621E-03   -0.30719E-04   746   0.474E-02    0.238E-01
RMM:  16    -0.443507776407E+03    0.11732E-03   -0.17225E-04   739   0.374E-02    0.150E-01
RMM:  17    -0.443507758975E+03    0.17432E-04   -0.10969E-04   737   0.278E-02    0.124E-01
RMM:  18    -0.443507846342E+03   -0.87367E-04   -0.13888E-04   735   0.296E-02    0.201E-01
RMM:  19    -0.443507761288E+03    0.85054E-04   -0.88312E-05   741   0.273E-02    0.104E-01
RMM:  20    -0.443507735946E+03    0.25342E-04   -0.34220E-05   733   0.164E-02    0.536E-02
RMM:  21    -0.443507736304E+03   -0.35796E-06   -0.20533E-05   727   0.113E-02    0.468E-02
RMM:  22    -0.443507747712E+03   -0.11408E-04   -0.17848E-05   721   0.107E-02    0.597E-02
RMM:  23    -0.443507745629E+03    0.20828E-05   -0.96378E-06   696   0.900E-03    0.309E-02
RMM:  24    -0.443507744399E+03    0.12302E-05   -0.28421E-06   460   0.499E-03    0.138E-02
RMM:  25    -0.443507746272E+03   -0.18728E-05   -0.14595E-06   400   0.343E-03    0.139E-02
RMM:  26    -0.443507752500E+03   -0.62282E-05   -0.16580E-06   413   0.383E-03    0.169E-02
RMM:  27    -0.443507757779E+03   -0.52795E-05   -0.12623E-06   391   0.375E-03    0.117E-02
RMM:  28    -0.443507760495E+03   -0.27154E-05   -0.65622E-07   376   0.256E-03    0.703E-03
RMM:  29    -0.443507765441E+03   -0.49467E-05   -0.64945E-07   373   0.225E-03    0.111E-02
RMM:  30    -0.443507773292E+03   -0.78507E-05   -0.73734E-07   378   0.249E-03    0.969E-03
RMM:  31    -0.443507776623E+03   -0.33308E-05   -0.41918E-07   372   0.201E-03    0.413E-03
RMM:  32    -0.443507779374E+03   -0.27514E-05   -0.27181E-07   372   0.141E-03    0.547E-03
RMM:  33    -0.443507786593E+03   -0.72191E-05   -0.43270E-07   374   0.158E-03    0.597E-03
RMM:  34    -0.443507789217E+03   -0.26236E-05   -0.23542E-07   371   0.144E-03    0.283E-03
RMM:  35    -0.443507790777E+03   -0.15598E-05   -0.12073E-07   361   0.856E-04    0.274E-03
RMM:  36    -0.443507794448E+03   -0.36712E-05   -0.16165E-07   367   0.928E-04    0.439E-03
RMM:  37    -0.443507799587E+03   -0.51387E-05   -0.25093E-07   366   0.106E-03    0.308E-03
RMM:  38    -0.443507800958E+03   -0.13715E-05   -0.10613E-07   355   0.811E-04    0.169E-03
RMM:  39    -0.443507803054E+03   -0.20958E-05   -0.10659E-07   338   0.662E-04    0.230E-03
RMM:  40    -0.443507805965E+03   -0.29110E-05   -0.14955E-07   353   0.751E-04    0.230E-03
RMM:  41    -0.443507806927E+03   -0.96158E-06   -0.71601E-08   306   0.653E-04
   7 F= -.45924779E+03 E0= -.45776261E+03  d E =-.297037E+01
       N       E                     dE             d eps       ncg     rms          rms(c)
DAV:   1    -0.443499945607E+03    0.78604E-02   -0.12382E+00   732   0.154E+00    0.282E-01
RMM:   2    -0.443510425348E+03   -0.10480E-01   -0.42687E-02   741   0.369E-01    0.159E+00
RMM:   3    -0.443504085991E+03    0.63394E-02   -0.38874E-03   733   0.161E-01    0.470E-01
RMM:   4    -0.443504890010E+03   -0.80402E-03   -0.14807E-03   755   0.901E-02    0.783E-01
RMM:   5    -0.443504128410E+03    0.76160E-03   -0.93830E-04   739   0.797E-02    0.616E-01
RMM:   6    -0.443503648431E+03    0.47998E-03   -0.69015E-04   739   0.759E-02    0.459E-01
RMM:   7    -0.443506665435E+03   -0.30170E-02   -0.27418E-03   738   0.132E-01    0.113E+00
RMM:   8    -0.443505522769E+03    0.11427E-02   -0.28866E-03   738   0.146E-01    0.845E-01
RMM:   9    -0.443503736447E+03    0.17863E-02   -0.22542E-03   738   0.140E-01    0.462E-01
RMM:  10    -0.443503786660E+03   -0.50213E-04   -0.15296E-03   738   0.103E-01    0.482E-01
RMM:  11    -0.443503819074E+03   -0.32414E-04   -0.11196E-03   739   0.903E-02    0.489E-01
RMM:  12    -0.443503221260E+03    0.59781E-03   -0.53713E-04   737   0.685E-02    0.259E-01
RMM:  13    -0.443503048969E+03    0.17229E-03   -0.15607E-04   732   0.345E-02    0.952E-02
RMM:  14    -0.443503058052E+03   -0.90832E-05   -0.77320E-05   732   0.220E-02    0.104E-01
RMM:  15    -0.443503061239E+03   -0.31869E-05   -0.47872E-05   743   0.183E-02    0.102E-01
RMM:  16    -0.443503041404E+03    0.19835E-04   -0.26754E-05   733   0.148E-02    0.567E-02
RMM:  17    -0.443503041035E+03    0.36891E-06   -0.15549E-05   724   0.106E-02    0.451E-02
RMM:  18    -0.443503062007E+03   -0.20972E-04   -0.24515E-05   733   0.124E-02    0.697E-02
RMM:  19    -0.443503060888E+03    0.11194E-05   -0.15553E-05   732   0.110E-02    0.450E-02
RMM:  20    -0.443503060328E+03    0.55935E-06   -0.88637E-06   710   0.835E-03
   8 F= -.45924287E+03 E0= -.45775755E+03  d E =-.297064E+01
       N       E                     dE             d eps       ncg     rms          rms(c)
DAV:   1    -0.443501067006E+03    0.19939E-02   -0.31227E-01   741   0.509E-01    0.380E-01
RMM:   2    -0.443529286255E+03   -0.28219E-01   -0.25541E-02   739   0.305E-01    0.317E+00
RMM:   3    -0.443504870694E+03    0.24416E-01   -0.11598E-02   734   0.300E-01    0.114E+00
RMM:   4    -0.443511695953E+03   -0.68253E-02   -0.74207E-03   745   0.208E-01    0.204E+00
RMM:   5    -0.443503898370E+03    0.77976E-02   -0.52345E-03   741   0.194E-01    0.116E+00
RMM:   6    -0.443500386626E+03    0.35117E-02   -0.21083E-03   739   0.134E-01    0.403E-01
RMM:   7    -0.443501159610E+03   -0.77298E-03   -0.15711E-03   735   0.102E-01    0.671E-01
RMM:   8    -0.443501339643E+03   -0.18003E-03   -0.18749E-03   736   0.113E-01    0.635E-01
RMM:   9    -0.443500498207E+03    0.84144E-03   -0.12510E-03   737   0.105E-01    0.425E-01
RMM:  10    -0.443500095988E+03    0.40222E-03   -0.60078E-04   734   0.683E-02    0.248E-01
RMM:  11    -0.443500198586E+03   -0.10260E-03   -0.47653E-04   738   0.571E-02    0.301E-01
RMM:  12    -0.443500168277E+03    0.30309E-04   -0.33002E-04   742   0.494E-02    0.285E-01
RMM:  13    -0.443499953578E+03    0.21470E-03   -0.16378E-04   736   0.384E-02    0.106E-01
RMM:  14    -0.443499942804E+03    0.10774E-04   -0.71966E-05   728   0.229E-02    0.966E-02
RMM:  15    -0.443499945417E+03   -0.26139E-05   -0.45573E-05   730   0.176E-02    0.944E-02
RMM:  16    -0.443499930434E+03    0.14984E-04   -0.28719E-05   742   0.152E-02    0.622E-02
RMM:  17    -0.443499920474E+03    0.99602E-05   -0.10229E-05   716   0.932E-03    0.265E-02
RMM:  18    -0.443499921649E+03   -0.11755E-05   -0.54936E-06   606   0.617E-03    0.277E-02
RMM:  19    -0.443499925822E+03   -0.41730E-05   -0.57708E-06   598   0.650E-03    0.385E-02
RMM:  20    -0.443499924580E+03    0.12418E-05   -0.35679E-06   492   0.615E-03    0.213E-02
RMM:  21    -0.443499923975E+03    0.60518E-06   -0.11790E-06   385   0.360E-03
   9 F= -.45923968E+03 E0= -.45775429E+03  d E =-.297079E+01
       N       E                     dE             d eps       ncg     rms          rms(c)
DAV:   1    -0.443504936630E+03   -0.50120E-02   -0.16456E-01   741   0.356E-01    0.316E-01
RMM:   2    -0.443523572350E+03   -0.18636E-01   -0.17897E-02   752   0.250E-01    0.252E+00
RMM:   3    -0.443507805037E+03    0.15767E-01   -0.77733E-03   737   0.243E-01    0.105E+00
RMM:   4    -0.443512084008E+03   -0.42790E-02   -0.52540E-03   745   0.176E-01    0.170E+00
RMM:   5    -0.443506586199E+03    0.54978E-02   -0.36542E-03   739   0.162E-01    0.983E-01
RMM:   6    -0.443504146953E+03    0.24392E-02   -0.13708E-03   739   0.108E-01    0.305E-01
RMM:   7    -0.443504799667E+03   -0.65271E-03   -0.10078E-03   737   0.806E-02    0.589E-01
RMM:   8    -0.443504680526E+03    0.11914E-03   -0.11412E-03   735   0.897E-02    0.478E-01
RMM:   9    -0.443504103885E+03    0.57664E-03   -0.67772E-04   734   0.781E-02    0.283E-01
RMM:  10    -0.443503939461E+03    0.16442E-03   -0.34972E-04   734   0.505E-02    0.181E-01
RMM:  11    -0.443504046600E+03   -0.10714E-03   -0.26817E-04   737   0.424E-02    0.261E-01
RMM:  12    -0.443503927323E+03    0.11928E-03   -0.16710E-04   744   0.365E-02    0.165E-01
RMM:  13    -0.443503852703E+03    0.74620E-04   -0.66391E-05   733   0.242E-02    0.636E-02
RMM:  14    -0.443503860294E+03   -0.75915E-05   -0.40477E-05   729   0.166E-02    0.808E-02
RMM:  15    -0.443503856849E+03    0.34457E-05   -0.26105E-05   732   0.137E-02    0.699E-02
RMM:  16    -0.443503845235E+03    0.11614E-04   -0.13592E-05   730   0.108E-02    0.385E-02
RMM:  17    -0.443503841361E+03    0.38738E-05   -0.47589E-06   577   0.630E-03    0.163E-02
RMM:  18    -0.443503843792E+03   -0.24305E-05   -0.34618E-06   488   0.509E-03    0.295E-02
RMM:  19    -0.443503843833E+03   -0.40905E-07   -0.31606E-06   479   0.575E-03
  10 F= -.45924362E+03 E0= -.45775830E+03  d E =-.297063E+01
       N       E                     dE             d eps       ncg     rms          rms(c)
DAV:   1    -0.443502407225E+03    0.14366E-02   -0.28951E-01   741   0.493E-01    0.279E-01
RMM:   2    -0.443512134898E+03   -0.97277E-02   -0.13838E-02   747   0.208E-01    0.182E+00
RMM:   3    -0.443504543168E+03    0.75917E-02   -0.47082E-03   737   0.184E-01    0.827E-01
RMM:   4    -0.443509446162E+03   -0.49030E-02   -0.40975E-03   748   0.154E-01    0.161E+00
RMM:   5    -0.443504137407E+03    0.53088E-02   -0.27312E-03   738   0.143E-01    0.799E-01
RMM:   6    -0.443502520323E+03    0.16171E-02   -0.11344E-03   738   0.974E-02    0.324E-01
RMM:   7    -0.443503281868E+03   -0.76155E-03   -0.11893E-03   734   0.879E-02    0.611E-01
RMM:   8    -0.443503211871E+03    0.69996E-04   -0.12008E-03   735   0.932E-02    0.504E-01
RMM:   9    -0.443502618161E+03    0.59371E-03   -0.85039E-04   736   0.867E-02    0.332E-01
RMM:  10    -0.443502352989E+03    0.26517E-03   -0.33789E-04   731   0.517E-02    0.174E-01
RMM:  11    -0.443502441671E+03   -0.88682E-04   -0.26672E-04   736   0.429E-02    0.240E-01
RMM:  12    -0.443502382372E+03    0.59299E-04   -0.17363E-04   742   0.365E-02    0.193E-01
RMM:  13    -0.443502283513E+03    0.98859E-04   -0.79825E-05   731   0.267E-02    0.759E-02
RMM:  14    -0.443502279231E+03    0.42822E-05   -0.38123E-05   727   0.166E-02    0.687E-02
RMM:  15    -0.443502282777E+03   -0.35460E-05   -0.25685E-05   727   0.134E-02    0.726E-02
RMM:  16    -0.443502272372E+03    0.10405E-04   -0.14157E-05   733   0.108E-02    0.431E-02
RMM:  17    -0.443502267809E+03    0.45630E-05   -0.49725E-06   569   0.669E-03    0.182E-02
RMM:  18    -0.443502269150E+03   -0.13409E-05   -0.29541E-06   439   0.500E-03    0.217E-02
RMM:  19    -0.443502272068E+03   -0.29182E-05   -0.34181E-06   494   0.554E-03    0.295E-02
RMM:  20    -0.443502271779E+03    0.28872E-06   -0.21929E-06   415   0.518E-03
  11 F= -.45924207E+03 E0= -.45775666E+03  d E =-.297082E+01
       N       E                     dE             d eps       ncg     rms          rms(c)
DAV:   1    -0.443502673602E+03   -0.40153E-03   -0.15004E-01   741   0.348E-01    0.252E-01
RMM:   2    -0.443517137688E+03   -0.14464E-01   -0.13577E-02   746   0.229E-01    0.220E+00
RMM:   3    -0.443504651944E+03    0.12486E-01   -0.53062E-03   738   0.202E-01    0.808E-01
RMM:   4    -0.443506222849E+03   -0.15709E-02   -0.29838E-03   744   0.132E-01    0.118E+00
RMM:   5    -0.443504140274E+03    0.20826E-02   -0.22285E-03   740   0.124E-01    0.819E-01
RMM:   6    -0.443502471878E+03    0.16684E-02   -0.90394E-04   739   0.885E-02    0.254E-01
RMM:   7    -0.443502887847E+03   -0.41597E-03   -0.64948E-04   735   0.651E-02    0.476E-01
RMM:   8    -0.443502846398E+03    0.41449E-04   -0.77142E-04   736   0.741E-02    0.387E-01
RMM:   9    -0.443502507628E+03    0.33877E-03   -0.49136E-04   735   0.661E-02    0.256E-01
RMM:  10    -0.443502351316E+03    0.15631E-03   -0.25415E-04   733   0.443E-02    0.141E-01
RMM:  11    -0.443502440417E+03   -0.89101E-04   -0.18423E-04   736   0.353E-02    0.226E-01
RMM:  12    -0.443502363178E+03    0.77239E-04   -0.12077E-04   744   0.307E-02    0.150E-01
RMM:  13    -0.443502300491E+03    0.62686E-04   -0.50626E-05   730   0.214E-02    0.522E-02
RMM:  14    -0.443502306156E+03   -0.56647E-05   -0.29848E-05   726   0.143E-02    0.645E-02
RMM:  15    -0.443502304885E+03    0.12714E-05   -0.18173E-05   730   0.116E-02    0.590E-02
RMM:  16    -0.443502296928E+03    0.79566E-05   -0.87677E-06   695   0.877E-03    0.314E-02
RMM:  17    -0.443502294888E+03    0.20398E-05   -0.30362E-06   461   0.524E-03    0.157E-02
RMM:  18    -0.443502296788E+03   -0.18994E-05   -0.25109E-06   425   0.458E-03    0.244E-02
RMM:  19    -0.443502298126E+03   -0.13379E-05   -0.24882E-06   436   0.515E-03    0.202E-02
RMM:  20    -0.443502298085E+03    0.41124E-07   -0.13373E-06   373   0.412E-03
  12 F= -.45924167E+03 E0= -.45775628E+03  d E =-.297078E+01
       N       E                     dE             d eps       ncg     rms          rms(c)
DAV:   1    -0.443504282162E+03   -0.19840E-02   -0.28283E-01   732   0.483E-01    0.262E-01
RMM:   2    -0.443524895376E+03   -0.20613E-01   -0.16528E-02   746   0.268E-01    0.268E+00
RMM:   3    -0.443506623086E+03    0.18272E-01   -0.64581E-03   734   0.227E-01    0.749E-01
RMM:   4    -0.443506886848E+03   -0.26376E-03   -0.25455E-03   743   0.120E-01    0.953E-01
RMM:   5    -0.443506583300E+03    0.30355E-03   -0.23080E-03   739   0.122E-01    0.910E-01
RMM:   6    -0.443504572691E+03    0.20106E-02   -0.10845E-03   739   0.969E-02    0.301E-01
RMM:   7    -0.443504991098E+03   -0.41841E-03   -0.78487E-04   735   0.728E-02    0.495E-01
RMM:   8    -0.443505168978E+03   -0.17788E-03   -0.10786E-03   736   0.864E-02    0.477E-01
RMM:   9    -0.443504644907E+03    0.52407E-03   -0.67426E-04   735   0.779E-02    0.299E-01
RMM:  10    -0.443504437627E+03    0.20728E-03   -0.31532E-04   733   0.497E-02    0.170E-01
RMM:  11    -0.443504513777E+03   -0.76151E-04   -0.23115E-04   735   0.395E-02    0.231E-01
RMM:  12    -0.443504473596E+03    0.40181E-04   -0.15829E-04   743   0.343E-02    0.191E-01
RMM:  13    -0.443504378152E+03    0.95444E-04   -0.74352E-05   731   0.259E-02    0.709E-02
RMM:  14    -0.443504375898E+03    0.22541E-05   -0.33270E-05   727   0.153E-02    0.636E-02
RMM:  15    -0.443504382647E+03   -0.67489E-05   -0.22305E-05   729   0.124E-02    0.684E-02
RMM:  16    -0.443504377631E+03    0.50155E-05   -0.13177E-05   732   0.103E-02    0.425E-02
RMM:  17    -0.443504374724E+03    0.29070E-05   -0.48724E-06   571   0.654E-03    0.180E-02
RMM:  18    -0.443504379109E+03   -0.43844E-05   -0.33678E-06   476   0.512E-03    0.251E-02
RMM:  19    -0.443504386672E+03   -0.75627E-05   -0.38070E-06   511   0.578E-03    0.274E-02
RMM:  20    -0.443504390101E+03   -0.34294E-05   -0.22637E-06   422   0.510E-03    0.152E-02
RMM:  21    -0.443504391451E+03   -0.13497E-05   -0.89336E-07   375   0.300E-03    0.961E-03
RMM:  22    -0.443504394087E+03   -0.26358E-05   -0.75226E-07   370   0.251E-03    0.116E-02
RMM:  23    -0.443504400134E+03   -0.60470E-05   -0.10400E-06   376   0.287E-03    0.133E-02
RMM:  24    -0.443504403658E+03   -0.35244E-05   -0.72596E-07   374   0.274E-03    0.642E-03
RMM:  25    -0.443504404742E+03   -0.10837E-05   -0.24474E-07   367   0.142E-03    0.406E-03
RMM:  26    -0.443504406887E+03   -0.21450E-05   -0.23442E-07   366   0.125E-03    0.592E-03
RMM:  27    -0.443504411131E+03   -0.42442E-05   -0.36212E-07   373   0.145E-03    0.536E-03
RMM:  28    -0.443504413097E+03   -0.19658E-05   -0.20534E-07   367   0.125E-03    0.291E-03
RMM:  29    -0.443504414320E+03   -0.12230E-05   -0.12338E-07   360   0.884E-04    0.317E-03
RMM:  30    -0.443504417465E+03   -0.31452E-05   -0.25541E-07   368   0.100E-03    0.489E-03
RMM:  31    -0.443504419375E+03   -0.19105E-05   -0.18093E-07   367   0.104E-03    0.209E-03
RMM:  32    -0.443504420181E+03   -0.80556E-06   -0.85881E-08   348   0.714E-04
  13 F= -.45924460E+03 E0= -.45775932E+03  d E =-.297057E+01
