 vasp.5.4.4.18Apr17-6-g9f103f2a35 (build Dec 15 2018 21:27:54) gamma-only       
  
 executed on             LinuxIFC date 2022.03.01  23:48:53
 running on   72 total cores
 distrk:  each k-point on   72 cores,    1 groups
 distr:  one band on NCORES_PER_BAND=  24 cores,    3 groups


--------------------------------------------------------------------------------------------------------


 INCAR:
 POTCAR:    PAW_PBE Ni 02Aug2007                  
 POTCAR:    PAW_PBE Fe 06Sep2000                  
 POTCAR:    PAW_PBE O 08Apr2002                   
 POTCAR:    PAW_PBE H 15Jun2001                   

 ----------------------------------------------------------------------------- 
|                                                                             |
|           W    W    AA    RRRRR   N    N  II  N    N   GGGG   !!!           |
|           W    W   A  A   R    R  NN   N  II  NN   N  G    G  !!!           |
|           W    W  A    A  R    R  N N  N  II  N N  N  G       !!!           |
|           W WW W  AAAAAA  RRRRR   N  N N  II  N  N N  G  GGG   !            |
|           WW  WW  A    A  R   R   N   NN  II  N   NN  G    G                |
|           W    W  A    A  R    R  N    N  II  N    N   GGGG   !!!           |
|                                                                             |
|      For optimal performance we recommend to set                            |
|        NCORE= 4 - approx SQRT( number of cores)                             |
|      NCORE specifies how many cores store one orbital (NPAR=cpu/NCORE).     |
|      This setting can  greatly improve the performance of VASP for DFT.     |
|      The default,   NCORE=1            might be grossly inefficient         |
|      on modern multi-core architectures or massively parallel machines.     |
|      Do your own testing !!!!                                               |
|      Unfortunately you need to use the default for GW and RPA calculations. |
|      (for HF NCORE is supported but not extensively tested yet)             |
|                                                                             |
 ----------------------------------------------------------------------------- 

 POTCAR:    PAW_PBE Ni 02Aug2007                  
   VRHFIN =Ni:                                                                  
   LEXCH  = PE                                                                  
   EATOM  =  1077.6739 eV,   79.2068 Ry                                         
                                                                                
   TITEL  = PAW_PBE Ni 02Aug2007                                                
   LULTRA =        F    use ultrasoft PP ?                                      
   IUNSCR =        1    unscreen: 0-lin 1-nonlin 2-no                           
   RPACOR =    2.000    partial core radius                                     
   POMASS =   58.690; ZVAL   =   10.000    mass and valenz                      
   RCORE  =    2.300    outmost cutoff radius                                   
   RWIGS  =    2.430; RWIGS  =    1.286    wigner-seitz radius (au A)           
   ENMAX  =  269.532; ENMIN  =  202.149 eV                                      
   RCLOC  =    1.201    cutoff for local pot                                    
   LCOR   =        T    correct aug charges                                     
   LPAW   =        T    paw PP                                                  
   EAUG   =  544.565                                                            
   DEXC   =    0.000                                                            
   RMAX   =    2.357    core radius for proj-oper                               
   RAUG   =    1.300    factor for augmentation sphere                          
   RDEP   =    2.390    radius for radial grids                                 
   RDEPT  =    1.838    core radius for aug-charge                              
                                                                                
   Atomic configuration                                                         
    9 entries                                                                   
     n  l   j            E        occ.                                          
     1  0  0.50     -8206.4253   2.0000                                         
     2  0  0.50      -976.1748   2.0000                                         
     2  1  1.50      -839.0571   6.0000                                         
     3  0  0.50      -105.9991   2.0000                                         
     3  1  1.50       -66.4603   6.0000                                         
     3  2  2.50        -4.6458   9.0000                                         
     4  0  0.50        -4.4926   1.0000                                         
     4  1  1.50        -4.0817   0.0000                                         
     4  3  2.50        -1.3606   0.0000                                         
   Description                                                                  
     l       E           TYP  RCUT    TYP  RCUT                                 
     2     -4.6457903     23  2.300                                             
     2     -6.0063729     23  2.300                                             
     0     -4.4925590     23  2.300                                             
     0      5.0102601     23  2.300                                             
     1     -2.7211652     23  2.300                                             
     1     16.5183231     23  2.300                                             
  local pseudopotential read in
  partial core-charges read in
  partial kinetic energy density read in
  atomic valenz-charges read in
  non local Contribution for L=           2  read in
    real space projection operators read in
  non local Contribution for L=           2  read in
    real space projection operators read in
  non local Contribution for L=           0  read in
    real space projection operators read in
  non local Contribution for L=           0  read in
    real space projection operators read in
  non local Contribution for L=           1  read in
    real space projection operators read in
  non local Contribution for L=           1  read in
    real space projection operators read in
    PAW grid and wavefunctions read in
 
   number of l-projection  operators is LMAX  =           6
   number of lm-projection operators is LMMAX =          18
 
 POTCAR:    PAW_PBE Fe 06Sep2000                  
   VRHFIN =Fe:  d7 s1                                                           
   LEXCH  = PE                                                                  
   EATOM  =   594.3153 eV,   43.6809 Ry                                         
                                                                                
   TITEL  = PAW_PBE Fe 06Sep2000                                                
   LULTRA =        F    use ultrasoft PP ?                                      
   IUNSCR =        1    unscreen: 0-lin 1-nonlin 2-no                           
   RPACOR =    2.000    partial core radius                                     
   POMASS =   55.847; ZVAL   =    8.000    mass and valenz                      
   RCORE  =    2.300    outmost cutoff radius                                   
   RWIGS  =    2.460; RWIGS  =    1.302    wigner-seitz radius (au A)           
   ENMAX  =  267.882; ENMIN  =  200.911 eV                                      
   RCLOC  =    1.701    cutoff for local pot                                    
   LCOR   =        T    correct aug charges                                     
   LPAW   =        T    paw PP                                                  
   EAUG   =  511.368                                                            
   DEXC   =    0.000                                                            
   RMAX   =    2.356    core radius for proj-oper                               
   RAUG   =    1.300    factor for augmentation sphere                          
   RDEP   =    2.442    radius for radial grids                                 
   RDEPT  =    1.890    core radius for aug-charge                              
                                                                                
   Atomic configuration                                                         
    9 entries                                                                   
     n  l   j            E        occ.                                          
     1  0  0.50     -6993.8440   2.0000                                         
     2  0  0.50      -814.6047   2.0000                                         
     2  1  1.50      -693.3689   6.0000                                         
     3  0  0.50       -89.4732   2.0000                                         
     3  1  1.50       -55.6373   6.0000                                         
     3  2  2.50        -3.8151   7.0000                                         
     4  0  0.50        -4.2551   1.0000                                         
     4  1  1.50        -3.4015   0.0000                                         
     4  3  2.50        -1.3606   0.0000                                         
   Description                                                                  
     l       E           TYP  RCUT    TYP  RCUT                                 
     2     -3.8151135     23  2.300                                             
     2     -5.1756961     23  2.300                                             
     0     -4.2550963     23  2.300                                             
     0      7.2035603     23  2.300                                             
     1     -2.7211652     23  2.300                                             
     1     18.4316424     23  2.300                                             
  local pseudopotential read in
  partial core-charges read in
  partial kinetic energy density read in
  atomic valenz-charges read in
  non local Contribution for L=           2  read in
    real space projection operators read in
  non local Contribution for L=           2  read in
    real space projection operators read in
  non local Contribution for L=           0  read in
    real space projection operators read in
  non local Contribution for L=           0  read in
    real space projection operators read in
  non local Contribution for L=           1  read in
    real space projection operators read in
  non local Contribution for L=           1  read in
    real space projection operators read in
    PAW grid and wavefunctions read in
 
   number of l-projection  operators is LMAX  =           6
   number of lm-projection operators is LMMAX =          18
 
 POTCAR:    PAW_PBE O 08Apr2002                   
   VRHFIN =O: s2p4                                                              
   LEXCH  = PE                                                                  
   EATOM  =   432.3788 eV,   31.7789 Ry                                         
                                                                                
   TITEL  = PAW_PBE O 08Apr2002                                                 
   LULTRA =        F    use ultrasoft PP ?                                      
   IUNSCR =        1    unscreen: 0-lin 1-nonlin 2-no                           
   RPACOR =    1.200    partial core radius                                     
   POMASS =   16.000; ZVAL   =    6.000    mass and valenz                      
   RCORE  =    1.520    outmost cutoff radius                                   
   RWIGS  =    1.550; RWIGS  =    0.820    wigner-seitz radius (au A)           
   ENMAX  =  400.000; ENMIN  =  300.000 eV                                      
   ICORE  =        2    local potential                                         
   LCOR   =        T    correct aug charges                                     
   LPAW   =        T    paw PP                                                  
   EAUG   =  605.392                                                            
   DEXC   =    0.000                                                            
   RMAX   =    1.553    core radius for proj-oper                               
   RAUG   =    1.300    factor for augmentation sphere                          
   RDEP   =    1.550    radius for radial grids                                 
   RDEPT  =    1.329    core radius for aug-charge                              
                                                                                
   Atomic configuration                                                         
    4 entries                                                                   
     n  l   j            E        occ.                                          
     1  0  0.50      -514.6923   2.0000                                         
     2  0  0.50       -23.9615   2.0000                                         
     2  1  0.50        -9.0305   4.0000                                         
     3  2  1.50        -9.5241   0.0000                                         
   Description                                                                  
     l       E           TYP  RCUT    TYP  RCUT                                 
     0    -23.9615318     23  1.200                                             
     0     -9.5240782     23  1.200                                             
     1     -9.0304911     23  1.520                                             
     1      8.1634956     23  1.520                                             
     2     -9.5240782      7  1.500                                             
  local pseudopotential read in
  partial core-charges read in
  partial kinetic energy density read in
  kinetic energy density of atom read in
  atomic valenz-charges read in
  non local Contribution for L=           0  read in
    real space projection operators read in
  non local Contribution for L=           0  read in
    real space projection operators read in
  non local Contribution for L=           1  read in
    real space projection operators read in
  non local Contribution for L=           1  read in
    real space projection operators read in
    PAW grid and wavefunctions read in
 
   number of l-projection  operators is LMAX  =           4
   number of lm-projection operators is LMMAX =           8
 
 POTCAR:    PAW_PBE H 15Jun2001                   
   VRHFIN =H: ultrasoft test                                                    
   LEXCH  = PE                                                                  
   EATOM  =    12.4884 eV,    0.9179 Ry                                         
                                                                                
   TITEL  = PAW_PBE H 15Jun2001                                                 
   LULTRA =        F    use ultrasoft PP ?                                      
   IUNSCR =        0    unscreen: 0-lin 1-nonlin 2-no                           
   RPACOR =    0.000    partial core radius                                     
   POMASS =    1.000; ZVAL   =    1.000    mass and valenz                      
   RCORE  =    1.100    outmost cutoff radius                                   
   RWIGS  =    0.700; RWIGS  =    0.370    wigner-seitz radius (au A)           
   ENMAX  =  250.000; ENMIN  =  200.000 eV                                      
   RCLOC  =    0.701    cutoff for local pot                                    
   LCOR   =        T    correct aug charges                                     
   LPAW   =        T    paw PP                                                  
   EAUG   =  400.000                                                            
   RMAX   =    1.123    core radius for proj-oper                               
   RAUG   =    1.200    factor for augmentation sphere                          
   RDEP   =    1.112    radius for radial grids                                 
   RDEPT  =    0.926    core radius for aug-charge                              
                                                                                
   Atomic configuration                                                         
    2 entries                                                                   
     n  l   j            E        occ.                                          
     1  0  0.50        -6.4927   1.0000                                         
     2  1  0.50        -3.4015   0.0000                                         
   Description                                                                  
     l       E           TYP  RCUT    TYP  RCUT                                 
     0     -6.4927494     23  1.100                                             
     0      6.8029130     23  1.100                                             
     1     -4.0817478     23  1.100                                             
  local pseudopotential read in
  atomic valenz-charges read in
  non local Contribution for L=           0  read in
    real space projection operators read in
  non local Contribution for L=           0  read in
    real space projection operators read in
  non local Contribution for L=           1  read in
    real space projection operators read in
    PAW grid and wavefunctions read in
 
   number of l-projection  operators is LMAX  =           3
   number of lm-projection operators is LMMAX =           5
 
 Optimization of the real space projectors (new method)

 maximal supplied QI-value         = 16.25
 optimisation between [QCUT,QGAM] = [ 11.54, 23.24] = [ 37.28,151.24] Ry 
 Optimized for a Real-space Cutoff    1.45 Angstroem

   l    n(q)    QCUT    max X(q) W(low)/X(q) W(high)/X(q)  e(spline) 
   2      9    11.539    60.317    0.19E-03    0.47E-04    0.16E-06
   2      9    11.539    55.921    0.19E-03    0.48E-04    0.16E-06
   0     10    11.539    51.690    0.80E-04    0.50E-04    0.24E-06
   0     10    11.539    30.015    0.73E-04    0.45E-04    0.22E-06
   1     10    11.539    18.849    0.87E-04    0.16E-03    0.71E-07
   1     10    11.539    14.624    0.73E-04    0.13E-03    0.64E-07
 Optimization of the real space projectors (new method)

 maximal supplied QI-value         = 16.25
 optimisation between [QCUT,QGAM] = [ 11.54, 23.24] = [ 37.28,151.24] Ry 
 Optimized for a Real-space Cutoff    1.53 Angstroem

   l    n(q)    QCUT    max X(q) W(low)/X(q) W(high)/X(q)  e(spline) 
   2     10    11.539    80.901    0.11E-03    0.14E-03    0.21E-06
   2     10    11.539    75.754    0.11E-03    0.14E-03    0.22E-06
   0     11    11.539    58.752    0.52E-04    0.18E-04    0.33E-06
   0     11    11.539    30.679    0.44E-04    0.16E-04    0.30E-06
   1     10    11.539    17.977    0.53E-04    0.29E-04    0.13E-06
   1     10    11.539    13.559    0.44E-04    0.25E-04    0.11E-06
 Optimization of the real space projectors (new method)

 maximal supplied QI-value         = 24.76
 optimisation between [QCUT,QGAM] = [ 11.64, 23.27] = [ 37.91,151.63] Ry 
 Optimized for a Real-space Cutoff    1.14 Angstroem

   l    n(q)    QCUT    max X(q) W(low)/X(q) W(high)/X(q)  e(spline) 
   0      8    11.635    20.381    0.10E-03    0.33E-03    0.24E-06
   0      8    11.635    15.268    0.11E-03    0.35E-03    0.26E-06
   1      7    11.635     5.964    0.24E-03    0.31E-03    0.30E-06
   1      7    11.635     5.382    0.22E-03    0.25E-03    0.26E-06
 Optimization of the real space projectors (new method)

 maximal supplied QI-value         = 34.20
 optimisation between [QCUT,QGAM] = [ 11.63, 23.26] = [ 37.87,151.49] Ry 
 Optimized for a Real-space Cutoff    1.21 Angstroem

   l    n(q)    QCUT    max X(q) W(low)/X(q) W(high)/X(q)  e(spline) 
   0      8    11.629    19.460    0.17E-03    0.34E-03    0.21E-06
   0      8    11.629    12.209    0.16E-03    0.33E-03    0.21E-06
   1      8    11.629     4.655    0.18E-03    0.16E-03    0.26E-06
  PAW_PBE Ni 02Aug2007                  :
 energy of atom  1       EATOM=-1077.6739
 kinetic energy error for atom=    0.0030 (will be added to EATOM!!)
  PAW_PBE Fe 06Sep2000                  :
 energy of atom  2       EATOM= -594.3153
 kinetic energy error for atom=    0.0026 (will be added to EATOM!!)
  PAW_PBE O 08Apr2002                   :
 energy of atom  3       EATOM= -432.3788
 kinetic energy error for atom=    0.0208 (will be added to EATOM!!)
  PAW_PBE H 15Jun2001                   :
 energy of atom  4       EATOM=  -12.4884
 kinetic energy error for atom=    0.0014 (will be added to EATOM!!)
 
 
 POSCAR: POSCAR                                  
  positions in direct lattice
  velocities in cartesian coordinates
 exchange correlation table for  LEXCH =        8
   RHO(1)=    0.500       N(1)  =     2000
   RHO(2)=  100.500       N(2)  =     4000

 VTST: version 3.2, (02/03/18)

 CHAIN: initializing optimizer
 
 OPT: Using VASP Dynamics algorithm
 CHAIN: Read ICHAIN            0
 
 POSCAR: POSCAR                                  
  positions in direct lattice
  velocities in cartesian coordinates
 


--------------------------------------------------------------------------------------------------------


 ion  position               nearest neighbor table
   1  0.999  0.001  0.191-  35 2.44  59 2.48  23 2.50  32 2.50   5 2.52  40 2.52  37 2.52   2 2.53
                             4 2.53  21 2.54  34 2.54  62 2.59
   2  0.248  0.999  0.192-  59 2.45  50 2.47  36 2.48   6 2.49  37 2.50   3 2.51  28 2.52  60 2.52
                             5 2.52  21 2.53   1 2.53   8 2.56
   3  0.499  0.002  0.192-  39 2.46  36 2.49  30 2.50  60 2.50  34 2.51   2 2.51   8 2.52  11 2.52
                             7 2.53  50 2.54  51 2.54  61 2.57
   4  0.998  0.251  0.192-  35 2.46  42 2.49  19 2.50  43 2.50  34 2.50  13 2.50   7 2.53   1 2.53
                            40 2.53  10 2.54   5 2.55  46 2.55
   5  0.249  0.249  0.191-  36 2.48  45 2.48  35 2.49  37 2.50  46 2.50   6 2.51   1 2.52  42 2.52
                             2 2.52  16 2.54   4 2.55  44 2.55
   6  0.332  0.165  0.287-  17 2.46  38 2.47   9 2.47  36 2.47   2 2.49   5 2.51  59 2.52  45 2.53
                            60 2.54  15 2.55  39 2.56  35 2.56
   7  0.749  0.253  0.193-  39 2.42  18 2.46  14 2.49  48 2.49  13 2.51  34 2.51  10 2.52   4 2.53
                             3 2.53  11 2.54  36 2.55  19 2.55
   8  0.418  0.084  0.094-  37 2.49  36 2.51  16 2.51   3 2.52  11 2.52  30 2.53  28 2.53  48 2.56
                             2 2.56
   9  0.416  0.086  0.382-  68 1.84  38 2.43   6 2.47  17 2.48  60 2.50  49 2.53  12 2.53  29 2.53
                            39 2.54  31 2.55
  10  0.831  0.166  0.290-  41 2.44  12 2.46  39 2.48  20 2.49  34 2.49  35 2.51  43 2.51   7 2.52
                            62 2.53  18 2.53   4 2.54  61 2.55
  11  0.668  0.085  0.096-  34 2.51  40 2.51  48 2.51   8 2.52   3 2.52  19 2.53  30 2.54  63 2.54
                             7 2.54
  12  0.667  0.087  0.384-  68 1.85  10 2.46  20 2.48  41 2.49  39 2.51  49 2.52   9 2.53  61 2.54
                            64 2.56  31 2.57
  13  0.999  0.499  0.193-  43 2.44  22 2.47  18 2.49  53 2.50   4 2.50  42 2.51   7 2.51  19 2.52
                            50 2.52  21 2.53  14 2.53  26 2.55
  14  0.748  0.499  0.192-  15 2.47  44 2.48  18 2.49   7 2.49  48 2.49  56 2.49  57 2.52  26 2.52
                            21 2.52  23 2.53  13 2.53  36 2.57
  15  0.584  0.419  0.286-  49 2.44  56 2.46  14 2.47  44 2.47  45 2.49  17 2.50  18 2.50  36 2.52
                             6 2.55  55 2.56  39 2.56  58 2.63
  16  0.420  0.333  0.094-  36 2.51   8 2.51  37 2.52  57 2.52  44 2.52  46 2.53  24 2.54  48 2.54
                             5 2.54
  17  0.414  0.330  0.381-  66 1.85  38 2.44   6 2.46   9 2.48  45 2.50  15 2.50  49 2.51  47 2.54
                            25 2.55  58 2.58
  18  0.830  0.416  0.287-  49 2.42   7 2.46  56 2.48  43 2.48  14 2.49  13 2.49  39 2.49  15 2.50
                            10 2.53  20 2.53  27 2.54  22 2.54
  19  0.919  0.335  0.096-  48 2.49   4 2.50  40 2.51  53 2.51  13 2.52  11 2.53  26 2.54  46 2.54
                             7 2.55
  20  0.914  0.332  0.385-  67 1.86  41 2.47  12 2.48  10 2.49  43 2.51  49 2.52  18 2.53  47 2.54
                            27 2.59  54 2.60
  21  0.998  0.749  0.193-  59 2.45  50 2.48  23 2.48  22 2.49  32 2.50  56 2.51  26 2.52  14 2.52
                             2 2.53  13 2.53   1 2.54  28 2.55
  22  0.083  0.666  0.287-  29 2.43  50 2.44  13 2.47  43 2.47  21 2.49  54 2.52  60 2.52  18 2.54
                            59 2.54  56 2.54  27 2.56  52 2.65
  23  0.753  0.752  0.192-  62 2.47  21 2.48  63 2.49   1 2.50  32 2.51  56 2.51  57 2.52  55 2.53
                            14 2.53  44 2.54  51 2.57  34 2.58
  24  0.417  0.584  0.096-  46 2.49  44 2.50  51 2.51  57 2.52  30 2.52  63 2.53  16 2.54  42 2.56
                            53 2.57
  25  0.412  0.581  0.383-  66 1.89  52 2.42  54 2.48  47 2.51  55 2.52  45 2.52  31 2.53  17 2.55
                            58 2.56  64 2.56
  26  0.916  0.585  0.095-  48 2.48  32 2.48  57 2.50  53 2.51  21 2.52  14 2.52  28 2.53  19 2.54
                            13 2.55
  27  0.910  0.586  0.384-  67 1.89  56 2.45  58 2.45  33 2.48  49 2.50  18 2.54  29 2.56  22 2.56
                            20 2.59  54 2.61
  28  0.167  0.835  0.095-  32 2.48  37 2.49  53 2.50   2 2.52  50 2.53   8 2.53  26 2.53  30 2.54
                            21 2.55
  29  0.165  0.836  0.377-  60 2.41  59 2.43  22 2.43  38 2.47  33 2.50  54 2.52   9 2.53  31 2.54
                            27 2.56
  30  0.417  0.833  0.097-  51 2.49   3 2.50  53 2.52  24 2.52   8 2.53  11 2.54  28 2.54  63 2.54
                            50 2.55
  31  0.413  0.832  0.385-  68 1.86  54 2.45  52 2.48  60 2.50  25 2.53  61 2.53  29 2.54  64 2.54
                             9 2.55  12 2.57
  32  0.920  0.833  0.095-  28 2.48  26 2.48   1 2.50  21 2.50  23 2.51  57 2.53  37 2.54  63 2.54
                            40 2.57
  33  0.916  0.834  0.381-  65 1.95  27 2.48  56 2.48  62 2.49  59 2.50  29 2.50  58 2.51  64 2.53
                            41 2.57  38 2.58
  34  0.749  0.005  0.193-  62 2.47  10 2.49  61 2.50   4 2.50  11 2.51   7 2.51   3 2.51  63 2.54
                             1 2.54  51 2.55  40 2.57  23 2.58
  35  0.077  0.161  0.284-   1 2.44   4 2.46  47 2.47   5 2.49  59 2.49  10 2.51  41 2.54  62 2.56
                             6 2.56  43 2.60  45 2.60  38 2.61
  36  0.493  0.245  0.192-   6 2.47   5 2.48   2 2.48   3 2.49  39 2.50  16 2.51   8 2.51  44 2.52
                            15 2.52   7 2.55  14 2.57  48 2.57
  37  0.171  0.083  0.095-  28 2.49   8 2.49   2 2.50   5 2.50  16 2.52   1 2.52  32 2.54  46 2.57
                            40 2.58
  38  0.175  0.086  0.384-  65 1.85   9 2.43  17 2.44   6 2.47  29 2.47  47 2.55  59 2.58  33 2.58
                            35 2.61  41 2.65
  39  0.586  0.167  0.286-   7 2.42   3 2.46  49 2.48  10 2.48  18 2.49  36 2.50  12 2.51   9 2.54
                            60 2.55   6 2.56  15 2.56  61 2.58
  40  0.917  0.086  0.094-  19 2.51  11 2.51   1 2.52  63 2.53   4 2.53  46 2.55  34 2.57  32 2.57
                            37 2.58
  41  0.914  0.088  0.383-  65 1.85  10 2.44  20 2.47  12 2.49  47 2.50  35 2.54  64 2.54  62 2.56
                            33 2.57  38 2.65
  42  0.246  0.497  0.194-  45 2.45  43 2.48   4 2.49  13 2.51  46 2.51   5 2.52  53 2.54  52 2.54
                            51 2.55  24 2.56  44 2.58  50 2.59
  43  0.077  0.418  0.287-  47 2.43  13 2.44  22 2.47  42 2.48  18 2.48   4 2.50  10 2.51  20 2.51
                            54 2.56  35 2.60  45 2.63  52 2.66
  44  0.503  0.500  0.191-  15 2.47  14 2.48  45 2.48  57 2.49  24 2.50  36 2.52  16 2.52  23 2.54
                             5 2.55  51 2.55  55 2.55  42 2.58
  45  0.336  0.417  0.285-  42 2.45  47 2.45  44 2.48   5 2.48  15 2.49  17 2.50  25 2.52   6 2.53
                            52 2.53  55 2.54  35 2.60  43 2.63
  46  0.171  0.337  0.096-  24 2.49   5 2.50  42 2.51  16 2.53  19 2.54   4 2.55  53 2.55  40 2.55
                            37 2.57
  47  0.164  0.331  0.377-  43 2.43  45 2.45  35 2.47  41 2.50  25 2.51  17 2.54  20 2.54  38 2.55
                            54 2.59
  48  0.673  0.336  0.096-  26 2.48  19 2.49  14 2.49   7 2.49  11 2.51  57 2.53  16 2.54   8 2.56
                            36 2.57
  49  0.666  0.336  0.379-  18 2.42  15 2.44  39 2.48  27 2.50  17 2.51  12 2.52  20 2.52   9 2.53
                            58 2.54
  50  0.245  0.753  0.193-  22 2.44  60 2.45   2 2.47  21 2.48  53 2.51  13 2.52  28 2.53   3 2.54
                            30 2.55  51 2.57  52 2.58  42 2.59
  51  0.498  0.750  0.193-  52 2.43  61 2.48  55 2.48  30 2.49  24 2.51  63 2.52   3 2.54  44 2.55
                            34 2.55  42 2.55  23 2.57  50 2.57
  52  0.348  0.673  0.289-  55 2.39  61 2.39  25 2.42  51 2.43  31 2.48  60 2.51  45 2.53  42 2.54
                            54 2.57  50 2.58  22 2.65  43 2.66
  53  0.165  0.586  0.097-  13 2.50  28 2.50  50 2.51  26 2.51  19 2.51  30 2.52  42 2.54  46 2.55
                            24 2.57
  54  0.170  0.590  0.385-  67 1.83  31 2.45  25 2.48  29 2.52  22 2.52  43 2.56  52 2.57  47 2.59
                            20 2.60  27 2.61
  55  0.584  0.672  0.288-  52 2.39  62 2.39  61 2.41  51 2.48  25 2.52  23 2.53  56 2.53  45 2.54
                            44 2.55  15 2.56  64 2.59  58 2.60
  56  0.829  0.661  0.288-  27 2.45  15 2.46  33 2.48  18 2.48  14 2.49  21 2.51  23 2.51  55 2.53
                            22 2.54  62 2.56  58 2.56  59 2.57
  57  0.668  0.584  0.095-  44 2.49  26 2.50  63 2.51  23 2.52  14 2.52  16 2.52  24 2.52  32 2.53
                            48 2.53
  58  0.667  0.587  0.389-  66 1.83  27 2.45  64 2.50  33 2.51  49 2.54  25 2.56  56 2.56  17 2.58
                            55 2.60  15 2.63
  59  0.082  0.916  0.285-  29 2.43  21 2.45   2 2.45   1 2.48  35 2.49  33 2.50   6 2.52  22 2.54
                            60 2.56  56 2.57  38 2.58  62 2.61
  60  0.334  0.914  0.288-  29 2.41  50 2.45   3 2.50  31 2.50   9 2.50  52 2.51   2 2.52  22 2.52
                             6 2.54  61 2.54  39 2.55  59 2.56
  61  0.583  0.910  0.289-  52 2.39  62 2.39  55 2.41  51 2.48  34 2.50  31 2.53  60 2.54  12 2.54
                            10 2.55   3 2.57  64 2.57  39 2.58
  62  0.820  0.910  0.287-  61 2.39  55 2.39  23 2.47  34 2.47  33 2.49  10 2.53  56 2.56  35 2.56
                            41 2.56  64 2.57   1 2.59  59 2.61
  63  0.668  0.834  0.097-  23 2.49  57 2.51  51 2.52  40 2.53  24 2.53  30 2.54  34 2.54  11 2.54
                            32 2.54
  64  0.665  0.833  0.390-  69 1.80  58 2.50  33 2.53  41 2.54  31 2.54  12 2.56  25 2.56  62 2.57
                            61 2.57  55 2.59
  65  0.007  0.012  0.436-  38 1.85  41 1.85  33 1.95
  66  0.494  0.492  0.437-  58 1.83  17 1.85  25 1.89
  67  0.003  0.504  0.436-  54 1.83  20 1.86  27 1.89
  68  0.499  0.004  0.436-   9 1.84  12 1.85  31 1.86
  69  0.682  0.829  0.474-  70 0.98  64 1.80
  70  0.784  0.887  0.493-  69 0.98
 

IMPORTANT INFORMATION: All symmetrisations will be switched off!
NOSYMM: (Re-)initialisation of all symmetry stuff for point group C_1.

 
 

Automatic generation of k-mesh.
 generate k-points for:    1    1    1
Space group operators:
 irot       det(A)        alpha          n_x          n_y          n_z        tau_x        tau_y        tau_z
    1     1.000000     0.000000     1.000000     0.000000     0.000000     0.000000     0.000000     0.000000
 
 Subroutine IBZKPT returns following result:
 ===========================================
 
 Found      1 irreducible k-points:
 
 Following reciprocal coordinates:
            Coordinates               Weight
  0.000000  0.000000  0.000000      1.000000
 
 Following cartesian coordinates:
            Coordinates               Weight
  0.000000  0.000000  0.000000      1.000000
 
 
 Subroutine IBZKPT_HF returns following result:
 ==============================================
 
 Found      1 k-points in 1st BZ
 the following      1 k-points will be used (e.g. in the exchange kernel)
 Following reciprocal coordinates:   # in IRBZ
  0.000000  0.000000  0.000000    1.00000000   1 t-inv F


--------------------------------------------------------------------------------------------------------




 Dimension of arrays:
   k-points           NKPTS =      1   k-points in BZ     NKDIM =      1   number of bands    NBANDS=    366
   number of dos      NEDOS =    301   number of ions     NIONS =     70
   non local maximal  LDIM  =      6   non local SUM 2l+1 LMDIM =     18
   total plane-waves  NPLWV = ******
   max r-space proj   IRMAX =   8292   max aug-charges    IRDMAX=  19623
   dimension x,y,z NGX =    80 NGY =   80 NGZ =  160
   dimension x,y,z NGXF=   160 NGYF=  160 NGZF=  320
   support grid    NGXF=   160 NGYF=  160 NGZF=  320
   ions per type =              33  31   5   1
   NGX,Y,Z   is equivalent  to a cutoff of  13.17, 13.17, 12.52 a.u.
   NGXF,Y,Z  is equivalent  to a cutoff of  26.34, 26.34, 25.03 a.u.

 SYSTEM =  SQS-NiFe                                
 POSCAR =  POSCAR                                  

 Startparameter for this run:
   NWRITE =      2    write-flag & timer
   PREC   = accura    normal or accurate (medium, high low for compatibility)
   ISTART =      0    job   : 0-new  1-cont  2-samecut
   ICHARG =      1    charge: 1-file 2-atom 10-const
   ISPIN  =      1    spin polarized calculation?
   LNONCOLLINEAR =      F non collinear calculations
   LSORBIT =      F    spin-orbit coupling
   INIWAV =      1    electr: 0-lowe 1-rand  2-diag
   LASPH  =      F    aspherical Exc in radial PAW
   METAGGA=      F    non-selfconsistent MetaGGA calc.

 Electronic Relaxation 1
   ENCUT  =  520.0 eV  38.22 Ry    6.18 a.u.  18.78 18.78 39.52*2*pi/ulx,y,z
   ENINI  =  520.0     initial cutoff
   ENAUG  =  605.4 eV  augmentation charge cutoff
   NELM   =    200;   NELMIN=  2; NELMDL= -5     # of ELM steps 
   EDIFF  = 0.1E-05   stopping-criterion for ELM
   LREAL  =      T    real-space projection
   NLSPLINE    = F    spline interpolate recip. space projectors
   LCOMPAT=      F    compatible to vasp.4.4
   GGA_COMPAT  = T    GGA compatible to vasp.4.4-vasp.4.6
   LMAXPAW     = -100 max onsite density
   LMAXMIX     =    2 max onsite mixed and CHGCAR
   VOSKOWN=      0    Vosko Wilk Nusair interpolation
   ROPT   =   -0.00025  -0.00025  -0.00025  -0.00025
 Ionic relaxation
   EDIFFG = -.2E-01   stopping-criterion for IOM
   NSW    =    877    number of steps for IOM
   NBLOCK =      1;   KBLOCK =    877    inner block; outer block 
   IBRION =      5    ionic relax: 0-MD 1-quasi-New 2-CG
   NFREE  =      2    steps in history (QN), initial steepest desc. (CG)
   ISIF   =      2    stress and relaxation
   IWAVPR =     11    prediction:  0-non 1-charg 2-wave 3-comb
   ISYM   =      0    0-nonsym 1-usesym 2-fastsym
   LCORR  =      T    Harris-Foulkes like correction to forces

   POTIM  = 0.0150    time-step for ionic-motion
   TEIN   =    0.0    initial temperature
   TEBEG  =    0.0;   TEEND  =   0.0 temperature during run
   SMASS  =  -3.00    Nose mass-parameter (am)
   estimated Nose-frequenzy (Omega)   =  0.10E-29 period in steps =****** mass=  -0.233E-26a.u.
   SCALEE = 1.0000    scale energy and forces
   NPACO  =    256;   APACO  = 16.0  distance and # of slots for P.C.
   PSTRESS=    0.0 pullay stress

  Mass of Ions in am
   POMASS =  58.69 55.85 16.00  1.00
  Ionic Valenz
   ZVAL   =  10.00  8.00  6.00  1.00
  Atomic Wigner-Seitz radii
   RWIGS  =  -1.00 -1.00 -1.00 -1.00
  virtual crystal weights 
   VCA    =   1.00  1.00  1.00  1.00
   NELECT =     609.0000    total number of electrons
   NUPDOWN=      -1.0000    fix difference up-down

 DOS related values:
   EMIN   =  10.00;   EMAX   =-10.00  energy-range for DOS
   EFERMI =   0.00
   ISMEAR =     0;   SIGMA  =   0.20  broadening in eV -4-tet -1-fermi 0-gaus

 Electronic relaxation 2 (details)
   IALGO  =     68    algorithm
   LDIAG  =      T    sub-space diagonalisation (order eigenvalues)
   LSUBROT=      F    optimize rotation matrix (better conditioning)
   TURBO    =      0    0=normal 1=particle mesh
   IRESTART =      0    0=no restart 2=restart with 2 vectors
   NREBOOT  =      0    no. of reboots
   NMIN     =      0    reboot dimension
   EREF     =   0.00    reference energy to select bands
   IMIX   =      4    mixing-type and parameters
     AMIX     =   0.40;   BMIX     =  1.00
     AMIX_MAG =   1.60;   BMIX_MAG =  1.00
     AMIN     =   0.10
     WC   =   100.;   INIMIX=   1;  MIXPRE=   1;  MAXMIX= -45

 Intra band minimization:
   WEIMIN = 0.0010     energy-eigenvalue tresh-hold
   EBREAK =  0.68E-09  absolut break condition
   DEPER  =   0.30     relativ break condition  

   TIME   =   0.40     timestep for ELM

  volume/ion in A,a.u.               =      26.82       181.02
  Fermi-wavevector in a.u.,A,eV,Ry     =   1.124782  2.125530 17.213203  1.265135
  Thomas-Fermi vector in A             =   2.261456
 
 Write flags
   LWAVE        =      F    write WAVECAR
   LDOWNSAMPLE  =      F    k-point downsampling of WAVECAR
   LCHARG       =      F    write CHGCAR
   LVTOT        =      F    write LOCPOT, total local potential
   LVHAR        =      F    write LOCPOT, Hartree potential only
   LELF         =      F    write electronic localiz. function (ELF)
   LORBIT       =     10    0 simple, 1 ext, 2 COOP (PROOUT), +10 PAW based schemes


 Dipole corrections
   LMONO  =      F    monopole corrections only (constant potential shift)
   LDIPOL =      F    correct potential (dipole corrections)
   IDIPOL =      0    1-x, 2-y, 3-z, 4-all directions 
   EPSILON=  1.0000000 bulk dielectric constant

 Exchange correlation treatment:
   GGA     =    --    GGA type
   LEXCH   =     8    internal setting for exchange type
   VOSKOWN=      0    Vosko Wilk Nusair interpolation
   LHFCALC =     F    Hartree Fock is set to
   LHFONE  =     F    Hartree Fock one center treatment
   AEXX    =    0.0000 exact exchange contribution

 Linear response parameters
   LEPSILON=     F    determine dielectric tensor
   LRPA    =     F    only Hartree local field effects (RPA)
   LNABLA  =     F    use nabla operator in PAW spheres
   LVEL    =     F    velocity operator in full k-point grid
   LINTERFAST=   F  fast interpolation
   KINTER  =     0    interpolate to denser k-point grid
   CSHIFT  =0.1000    complex shift for real part using Kramers Kronig
   OMEGAMAX=  -1.0    maximum frequency
   DEG_THRESHOLD= 0.2000000E-02 threshold for treating states as degnerate
   RTIME   =   -0.100 relaxation time in fs
  (WPLASMAI=    0.000 imaginary part of plasma frequency in eV, 0.658/RTIME)
   DFIELD  = 0.0000000 0.0000000 0.0000000 field for delta impulse in time
 
 Orbital magnetization related:
   ORBITALMAG=     F  switch on orbital magnetization
   LCHIMAG   =     F  perturbation theory with respect to B field
   DQ        =  0.001000  dq finite difference perturbation B field
   LLRAUG    =     F  two centre corrections for induced B field



--------------------------------------------------------------------------------------------------------


 finite differences
   using selective dynamics as specified on POSCAR
 charge density and potential will be updated during run
 non-spin polarized calculation
 RMM-DIIS sequential band-by-band and
  variant of blocked Davidson during initial phase
 perform sub-space diagonalisation
    before iterative eigenvector-optimisation
 modified Broyden-mixing scheme, WC =      100.0
 initial mixing is a Kerker type mixing with AMIX =  0.4000 and BMIX =      1.0000
 Hartree-type preconditioning will be used
 using additional bands           61
 real space projection scheme for non local part
 use partial core corrections
 calculate Harris-corrections to forces 
   (improved forces if not selfconsistent)
 use gradient corrections 
 use of overlap-Matrix (Vanderbilt PP)
 Gauss-broadening in eV      SIGMA  =   0.20


--------------------------------------------------------------------------------------------------------


  energy-cutoff  :      520.00
  volume of cell :     1877.75
      direct lattice vectors                 reciprocal lattice vectors
    10.100310000  0.000000000  0.000000000     0.099006862  0.057161638  0.000000000
    -5.050155000  8.747125050  0.000000000     0.000000000  0.114323277  0.000000000
     0.000000000  0.000000000 21.253800000     0.000000000  0.000000000  0.047050410

  length of vectors
    10.100310000 10.100310003 21.253800000     0.114323277  0.114323277  0.047050410


 
 k-points in units of 2pi/SCALE and weight: read from INCAR                         
   0.00000000  0.00000000  0.00000000       1.000
 
 k-points in reciprocal lattice and weights: read from INCAR                         
   0.00000000  0.00000000  0.00000000       1.000
 
 position of ions in fractional coordinates (direct lattice) 
   0.99904300  0.00064200  0.19052300
   0.24849100  0.99862800  0.19205500
   0.49902500  0.00192700  0.19180600
   0.99813900  0.25067400  0.19194200
   0.24921500  0.24886200  0.19118600
   0.33213842  0.16462077  0.28726279
   0.74893500  0.25278100  0.19317500
   0.41837500  0.08394000  0.09411800
   0.41636741  0.08563779  0.38215504
   0.83134024  0.16630610  0.28950766
   0.66797000  0.08472300  0.09569300
   0.66707419  0.08675463  0.38359805
   0.99908600  0.49910800  0.19304000
   0.74816900  0.49871100  0.19204600
   0.58352175  0.41869547  0.28636674
   0.41961000  0.33337100  0.09414000
   0.41434936  0.32967730  0.38116201
   0.83008619  0.41621812  0.28743072
   0.91855900  0.33501600  0.09568700
   0.91372671  0.33198226  0.38452284
   0.99765800  0.74896900  0.19256000
   0.08275856  0.66575174  0.28695096
   0.75346500  0.75172800  0.19162900
   0.41737300  0.58352400  0.09623400
   0.41165536  0.58104587  0.38293474
   0.91550800  0.58461900  0.09542900
   0.90958102  0.58590542  0.38410172
   0.16682900  0.83490800  0.09456700
   0.16476467  0.83632828  0.37717516
   0.41715300  0.83338800  0.09679300
   0.41330530  0.83211795  0.38503664
   0.91985100  0.83263700  0.09539800
   0.91604883  0.83419585  0.38059716
   0.74918200  0.00453800  0.19311300
   0.07652111  0.16072379  0.28444255
   0.49319000  0.24544000  0.19167800
   0.17139600  0.08339300  0.09535900
   0.17547189  0.08577017  0.38398097
   0.58629187  0.16665921  0.28552012
   0.91693100  0.08581500  0.09410100
   0.91377745  0.08766313  0.38343896
   0.24596400  0.49669300  0.19369900
   0.07662368  0.41770568  0.28727633
   0.50297300  0.49962100  0.19096300
   0.33609911  0.41670941  0.28539469
   0.17081400  0.33724200  0.09550500
   0.16426107  0.33148442  0.37670371
   0.67264700  0.33598100  0.09600300
   0.66613890  0.33571425  0.37888749
   0.24490500  0.75270000  0.19343600
   0.49840300  0.74988300  0.19260700
   0.34801431  0.67263583  0.28869782
   0.16470600  0.58627100  0.09733100
   0.17042142  0.59012574  0.38473815
   0.58402547  0.67213661  0.28783437
   0.82874235  0.66129286  0.28818176
   0.66762500  0.58426200  0.09519900
   0.66725317  0.58693901  0.38880608
   0.08157571  0.91629959  0.28476677
   0.33383458  0.91414193  0.28782858
   0.58324972  0.91023107  0.28854332
   0.81991508  0.91029115  0.28749467
   0.66841400  0.83351100  0.09659800
   0.66547531  0.83314186  0.39017090
   0.00675460  0.01237129  0.43583370
   0.49423242  0.49190279  0.43715366
   0.00250521  0.50406314  0.43613889
   0.49876807  0.00425390  0.43616921
   0.68224547  0.82929106  0.47420310
   0.78388931  0.88699553  0.49303272
 
 position of ions in cartesian coordinates  (Angst):
  10.08740180  0.00561565  4.04933774
  -2.53339006  8.73512399  4.08189856
   5.03057555  0.01685571  4.07660636
   8.81557077  2.19267682  4.07949688
   1.26035708  2.17682703  4.06342901
   2.52334056  1.43995845  6.10542595
   6.28789244  2.21110702  4.10570281
   3.80180719  0.73423368  2.00036515
   3.77295577  0.74908449  8.12224677
   7.55692260  1.45470022  6.15313793
   6.31883979  0.74108268  2.03383988
   6.29953181  0.75885358  8.15291623
   7.57050555  4.36576009  4.10283355
   5.03817098  4.36228748  4.08170727
   3.77927356  3.66238167  6.08638147
   2.55461586  2.91603783  2.00083273
   2.52013551  2.88372860  8.10114108
   6.28216181  3.64071197  6.10899510
   7.58584793  2.93042685  2.03371236
   7.55236115  2.90389033  8.17257153
   6.29424553  6.55132550  4.09263173
  -2.52626233  5.82341373  6.09879835
   3.81388716  6.57545882  4.07284444
   1.26871004  5.10415740  2.04533819
   1.22347501  5.08248086  8.13881845
   6.29449804  5.11373550  2.02822888
   6.22813703  5.12498799  8.16362116
  -2.53139019  7.30304468  2.00990810
  -2.55941318  7.31546804  8.01640548
   0.00463604  7.28974905  2.05721906
  -0.02781298  7.27863976  8.18349182
   5.08583435  7.28317996  2.02757001
   5.03955884  7.29681541  8.08913586
   7.54405284  0.03969445  4.10438508
  -0.03879311  1.40587108  6.04548504
   3.74186185  2.14689437  4.07388588
   1.31000516  0.72944900  2.02674111
   1.33916776  0.75024244  8.16105478
   5.08007478  1.45778891  6.06838757
   8.82790830  0.75063454  2.00000383
   8.78672309  0.76680033  8.14953500
  -0.02406399  4.34463578  4.11683981
  -1.33555549  3.65372386  6.10571360
   2.55701973  4.37024736  4.05868941
   1.29025812  3.64500928  6.06572168
   0.02214998  2.94989795  2.02984417
  -0.01495999  2.89953565  8.00638526
   5.09718709  2.93886782  2.04042856
   5.03280043  2.93653451  8.05279897
  -1.32763525  6.58396103  4.11125006
   1.24699942  6.55932037  4.09363066
   0.11813717  5.88362973  6.13592568
  -1.29717776  5.12818575  2.06865361
  -1.25891735  5.16190368  8.17714779
   2.50444425  5.87926296  6.11757406
   5.03092319  5.78441136  6.12495744
   3.79260580  5.11061278  2.02334051
   3.77533085  5.13402891  8.26360676
  -3.80351498  8.01498710  6.05237605
  -1.24472569  7.99611378  6.11745100
   1.29419502  7.96190498  6.13264205
   3.68428512  7.96243048  6.11035417
   2.54182886  7.29082495  2.05307457
   2.51401144  7.28759604  8.29261419
   0.00574666  0.10821321  9.26312230
   2.50771533  4.30273522  9.29117645
  -2.52029362  4.40910335  9.26960882
   5.01622928  0.03720938  9.27025318
   2.70284233  7.25391263 10.07861785
   3.43806015  7.75866084 10.47881890
 


--------------------------------------------------------------------------------------------------------


 use parallel FFT for orbitals z direction half grid
 k-point  1 :   0.0000 0.0000 0.0000  plane waves:   25321

 maximum and minimum number of plane-waves per node :      1058     1052

 maximum number of plane-waves:     25321
 maximum index in each direction: 
   IXMAX=   18   IYMAX=   18   IZMAX=   39
   IXMIN=  -18   IYMIN=  -18   IZMIN=    0


 real space projection operators:
  total allocation   :      67124.23 KBytes
  max/ min on nodes  :       3378.49       2421.21


 parallel 3D FFT for wavefunctions:
    minimum data exchange during FFTs selected (reduces bandwidth)
 parallel 3D FFT for charge:
    minimum data exchange during FFTs selected (reduces bandwidth)


 total amount of memory used by VASP MPI-rank0    55307. kBytes
=======================================================================

   base      :      30000. kBytes
   nonlr-proj:       4034. kBytes
   fftplans  :       5965. kBytes
   grid      :      13166. kBytes
   one-center:         23. kBytes
   wavefun   :       2119. kBytes
 
     INWAV:  cpu time    0.0000: real time    0.0002
 Broyden mixing: mesh for mixing (old mesh)
   NGX = 37   NGY = 37   NGZ = 79
  (NGX  =160   NGY  =160   NGZ  =320)
  gives a total of 108151 points

 initial charge density was supplied:
 number of electron     609.0000043 magnetization 
 keeping initial charge density in first step


--------------------------------------------------------------------------------------------------------


 Maximum index for non-local projection operator          761
 Maximum index for augmentation-charges         1120 (set IRDMAX)


--------------------------------------------------------------------------------------------------------


 First call to EWALD:  gamma=   0.144
 Maximum number of real-space cells 4x 4x 2
 Maximum number of reciprocal cells 2x 2x 4

    FEWALD:  cpu time    0.0044: real time    0.0044


--------------------------------------- Iteration      1(   1)  ---------------------------------------


    POTLOK:  cpu time    0.1993: real time    0.2069
    SETDIJ:  cpu time    0.0346: real time    0.0347
     EDDAV:  cpu time    2.2534: real time    2.2577
       DOS:  cpu time    0.0099: real time    0.0099
    --------------------------------------------
      LOOP:  cpu time    2.4973: real time    2.5093

 eigenvalue-minimisations  :   732
 total energy-change (2. order) : 0.5633638E+04  (-0.3058354E+05)
 number of electron     609.0000043 magnetization 
 augmentation part      609.0000043 magnetization 

 Free energy of the ion-electron system (eV)
  ---------------------------------------------------
  alpha Z        PSCENC =      1452.77266498
  Ewald energy   TEWEN  =    196169.61586266
  -Hartree energ DENC   =   -251315.21445144
  -exchange      EXHF   =         0.00000000
  -V(xc)+E(xc)   XCENC  =      1240.42317771
  PAW double counting   =     61677.59498413   -64230.07929414
  entropy T*S    EENTRO =        -0.39067839
  eigenvalues    EBANDS =      4477.80563511
  atomic energy  EATOM  =     56161.11034558
  Solvation  Ediel_sol  =         0.00000000
  ---------------------------------------------------
  free energy    TOTEN  =      5633.63824621 eV

  energy without entropy =     5634.02892459  energy(sigma->0) =     5633.83358540


--------------------------------------------------------------------------------------------------------




--------------------------------------- Iteration      1(   2)  ---------------------------------------


     EDDAV:  cpu time    2.1014: real time    2.1130
       DOS:  cpu time    0.0017: real time    0.0017
    --------------------------------------------
      LOOP:  cpu time    2.1031: real time    2.1146

 eigenvalue-minimisations  :   732
 total energy-change (2. order) :-0.5402081E+04  (-0.5270357E+04)
 number of electron     609.0000043 magnetization 
 augmentation part      609.0000043 magnetization 

 Free energy of the ion-electron system (eV)
  ---------------------------------------------------
  alpha Z        PSCENC =      1452.77266498
  Ewald energy   TEWEN  =    196169.61586266
  -Hartree energ DENC   =   -251315.21445144
  -exchange      EXHF   =         0.00000000
  -V(xc)+E(xc)   XCENC  =      1240.42317771
  PAW double counting   =     61677.59498413   -64230.07929414
  entropy T*S    EENTRO =        -1.40082995
  eigenvalues    EBANDS =      -923.26564473
  atomic energy  EATOM  =     56161.11034558
  Solvation  Ediel_sol  =         0.00000000
  ---------------------------------------------------
  free energy    TOTEN  =       231.55681480 eV

  energy without entropy =      232.95764475  energy(sigma->0) =      232.25722978


--------------------------------------------------------------------------------------------------------




--------------------------------------- Iteration      1(   3)  ---------------------------------------


     EDDAV:  cpu time    2.1366: real time    2.1482
       DOS:  cpu time    0.0015: real time    0.0015
    --------------------------------------------
      LOOP:  cpu time    2.1381: real time    2.1497

 eigenvalue-minimisations  :   750
 total energy-change (2. order) :-0.5763189E+03  (-0.5134495E+03)
 number of electron     609.0000043 magnetization 
 augmentation part      609.0000043 magnetization 

 Free energy of the ion-electron system (eV)
  ---------------------------------------------------
  alpha Z        PSCENC =      1452.77266498
  Ewald energy   TEWEN  =    196169.61586266
  -Hartree energ DENC   =   -251315.21445144
  -exchange      EXHF   =         0.00000000
  -V(xc)+E(xc)   XCENC  =      1240.42317771
  PAW double counting   =     61677.59498413   -64230.07929414
  entropy T*S    EENTRO =        -2.67877655
  eigenvalues    EBANDS =     -1498.30660260
  atomic energy  EATOM  =     56161.11034558
  Solvation  Ediel_sol  =         0.00000000
  ---------------------------------------------------
  free energy    TOTEN  =      -344.76208966 eV

  energy without entropy =     -342.08331311  energy(sigma->0) =     -343.42270139


--------------------------------------------------------------------------------------------------------




--------------------------------------- Iteration      1(   4)  ---------------------------------------


     EDDAV:  cpu time    3.5966: real time    3.6101
       DOS:  cpu time    0.0019: real time    0.0019
    --------------------------------------------
      LOOP:  cpu time    3.5985: real time    3.6120

 eigenvalue-minimisations  :  1437
 total energy-change (2. order) :-0.9143588E+02  (-0.8451299E+02)
 number of electron     609.0000043 magnetization 
 augmentation part      609.0000043 magnetization 

 Free energy of the ion-electron system (eV)
  ---------------------------------------------------
  alpha Z        PSCENC =      1452.77266498
  Ewald energy   TEWEN  =    196169.61586266
  -Hartree energ DENC   =   -251315.21445144
  -exchange      EXHF   =         0.00000000
  -V(xc)+E(xc)   XCENC  =      1240.42317771
  PAW double counting   =     61677.59498413   -64230.07929414
  entropy T*S    EENTRO =        -2.57984295
  eigenvalues    EBANDS =     -1589.84141755
  atomic energy  EATOM  =     56161.11034558
  Solvation  Ediel_sol  =         0.00000000
  ---------------------------------------------------
  free energy    TOTEN  =      -436.19797101 eV

  energy without entropy =     -433.61812806  energy(sigma->0) =     -434.90804953


--------------------------------------------------------------------------------------------------------




--------------------------------------- Iteration      1(   5)  ---------------------------------------


     EDDAV:  cpu time    2.9408: real time    2.9543
       DOS:  cpu time    0.0013: real time    0.0013
    CHARGE:  cpu time    0.1122: real time    0.1123
    MIXING:  cpu time    0.0134: real time    0.0134
    --------------------------------------------
      LOOP:  cpu time    3.0679: real time    3.0814

 eigenvalue-minimisations  :  1140
 total energy-change (2. order) :-0.1114684E+02  (-0.1038925E+02)
 number of electron     609.0000041 magnetization 
 augmentation part      333.7975390 magnetization 

 Broyden mixing:
  rms(total) = 0.33343E+01    rms(broyden)= 0.33340E+01
  rms(prec ) = 0.37204E+01
  weight for this iteration     100.00

 Free energy of the ion-electron system (eV)
  ---------------------------------------------------
  alpha Z        PSCENC =      1452.77266498
  Ewald energy   TEWEN  =    196169.61586266
  -Hartree energ DENC   =   -251315.21445144
  -exchange      EXHF   =         0.00000000
  -V(xc)+E(xc)   XCENC  =      1240.42317771
  PAW double counting   =     61677.59498413   -64230.07929414
  entropy T*S    EENTRO =        -2.66613418
  eigenvalues    EBANDS =     -1600.90196357
  atomic energy  EATOM  =     56161.11034558
  Solvation  Ediel_sol  =         0.00000000
  ---------------------------------------------------
  free energy    TOTEN  =      -447.34480826 eV

  energy without entropy =     -444.67867408  energy(sigma->0) =     -446.01174117


--------------------------------------------------------------------------------------------------------




--------------------------------------- Iteration      1(   6)  ---------------------------------------


    POTLOK:  cpu time    0.1839: real time    0.1959
    SETDIJ:  cpu time    0.0107: real time    0.0107
    EDDIAG:  cpu time    0.3181: real time    0.3182
  RMM-DIIS:  cpu time    1.7579: real time    1.7587
    ORTHCH:  cpu time    0.0677: real time    0.0677
       DOS:  cpu time    0.0016: real time    0.0016
    CHARGE:  cpu time    0.1014: real time    0.1014
    MIXING:  cpu time    0.0054: real time    0.0054
    --------------------------------------------
      LOOP:  cpu time    2.4466: real time    2.4596

 eigenvalue-minimisations  :   870
 total energy-change (2. order) :-0.2511565E+03  (-0.4211420E+02)
 number of electron     609.0000050 magnetization 
 augmentation part      342.7318799 magnetization 

 Broyden mixing:
  rms(total) = 0.15462E+02    rms(broyden)= 0.15462E+02
  rms(prec ) = 0.18400E+02
  weight for this iteration     100.00

 eigenvalues of (default mixing * dielectric matrix)
  average eigenvalue GAMMA=   0.1519
  0.1519

 Free energy of the ion-electron system (eV)
  ---------------------------------------------------
  alpha Z        PSCENC =      1452.77266498
  Ewald energy   TEWEN  =    196169.61586266
  -Hartree energ DENC   =   -251083.17214901
  -exchange      EXHF   =         0.00000000
  -V(xc)+E(xc)   XCENC  =      1233.03566216
  PAW double counting   =     60986.60218427   -63478.32177118
  entropy T*S    EENTRO =        -0.98190740
  eigenvalues    EBANDS =     -2139.16223548
  atomic energy  EATOM  =     56161.11034558
  Solvation  Ediel_sol  =         0.00000000
  ---------------------------------------------------
  free energy    TOTEN  =      -698.50134342 eV

  energy without entropy =     -697.51943602  energy(sigma->0) =     -698.01038972


--------------------------------------------------------------------------------------------------------




--------------------------------------- Iteration      1(   7)  ---------------------------------------


    POTLOK:  cpu time    0.1838: real time    0.1949
    SETDIJ:  cpu time    0.0106: real time    0.0106
    EDDIAG:  cpu time    0.3097: real time    0.3098
  RMM-DIIS:  cpu time    1.4978: real time    1.4988
    ORTHCH:  cpu time    0.0672: real time    0.0672
       DOS:  cpu time    0.0017: real time    0.0017
    CHARGE:  cpu time    0.1052: real time    0.1053
    MIXING:  cpu time    0.0035: real time    0.0034
    --------------------------------------------
      LOOP:  cpu time    2.1795: real time    2.1917

 eigenvalue-minimisations  :   733
 total energy-change (2. order) : 0.1780995E+03  (-0.2008562E+02)
 number of electron     609.0000043 magnetization 
 augmentation part      338.4509046 magnetization 

 Broyden mixing:
  rms(total) = 0.11044E+02    rms(broyden)= 0.11044E+02
  rms(prec ) = 0.12887E+02
  weight for this iteration     100.00

 eigenvalues of (default mixing * dielectric matrix)
  average eigenvalue GAMMA=   0.1230
  0.1611  0.0848

 Free energy of the ion-electron system (eV)
  ---------------------------------------------------
  alpha Z        PSCENC =      1452.77266498
  Ewald energy   TEWEN  =    196169.61586266
  -Hartree energ DENC   =   -251271.36621927
  -exchange      EXHF   =         0.00000000
  -V(xc)+E(xc)   XCENC  =      1236.81818057
  PAW double counting   =     61198.81664207   -63723.90766824
  entropy T*S    EENTRO =        -1.42457738
  eigenvalues    EBANDS =     -1742.83709434
  atomic energy  EATOM  =     56161.11034558
  Solvation  Ediel_sol  =         0.00000000
  ---------------------------------------------------
  free energy    TOTEN  =      -520.40186337 eV

  energy without entropy =     -518.97728599  energy(sigma->0) =     -519.68957468


--------------------------------------------------------------------------------------------------------




--------------------------------------- Iteration      1(   8)  ---------------------------------------


    POTLOK:  cpu time    0.1841: real time    0.1959
    SETDIJ:  cpu time    0.0106: real time    0.0106
    EDDIAG:  cpu time    0.3086: real time    0.3095
  RMM-DIIS:  cpu time    1.5120: real time    1.5124
    ORTHCH:  cpu time    0.0678: real time    0.0678
       DOS:  cpu time    0.0016: real time    0.0016
    CHARGE:  cpu time    0.1084: real time    0.1084
    MIXING:  cpu time    0.0036: real time    0.0036
    --------------------------------------------
      LOOP:  cpu time    2.1975: real time    2.2099

 eigenvalue-minimisations  :   737
 total energy-change (2. order) : 0.6784321E+02  (-0.6217469E+01)
 number of electron     609.0000040 magnetization 
 augmentation part      334.4538265 magnetization 

 Broyden mixing:
  rms(total) = 0.45259E+01    rms(broyden)= 0.45256E+01
  rms(prec ) = 0.54377E+01
  weight for this iteration     100.00

 eigenvalues of (default mixing * dielectric matrix)
  average eigenvalue GAMMA=   0.1008
  0.1473  0.0926  0.0626

 Free energy of the ion-electron system (eV)
  ---------------------------------------------------
  alpha Z        PSCENC =      1452.77266498
  Ewald energy   TEWEN  =    196169.61586266
  -Hartree energ DENC   =   -251312.37074759
  -exchange      EXHF   =         0.00000000
  -V(xc)+E(xc)   XCENC  =      1238.73795772
  PAW double counting   =     61276.09591000   -63815.69708110
  entropy T*S    EENTRO =        -2.42442040
  eigenvalues    EBANDS =     -1620.39914694
  atomic energy  EATOM  =     56161.11034558
  Solvation  Ediel_sol  =         0.00000000
  ---------------------------------------------------
  free energy    TOTEN  =      -452.55865509 eV

  energy without entropy =     -450.13423469  energy(sigma->0) =     -451.34644489


--------------------------------------------------------------------------------------------------------




--------------------------------------- Iteration      1(   9)  ---------------------------------------


    POTLOK:  cpu time    0.1858: real time    0.1991
    SETDIJ:  cpu time    0.0106: real time    0.0106
    EDDIAG:  cpu time    0.3083: real time    0.3083
  RMM-DIIS:  cpu time    1.8283: real time    1.8290
    ORTHCH:  cpu time    0.0676: real time    0.0676
       DOS:  cpu time    0.0017: real time    0.0017
    CHARGE:  cpu time    0.1147: real time    0.1147
    MIXING:  cpu time    0.0037: real time    0.0037
    --------------------------------------------
      LOOP:  cpu time    2.5198: real time    2.5348

 eigenvalue-minimisations  :   902
 total energy-change (2. order) : 0.6773794E+01  (-0.1495407E+01)
 number of electron     609.0000043 magnetization 
 augmentation part      335.0261590 magnetization 

 Broyden mixing:
  rms(total) = 0.27723E+01    rms(broyden)= 0.27721E+01
  rms(prec ) = 0.30841E+01
  weight for this iteration     100.00

 eigenvalues of (default mixing * dielectric matrix)
  average eigenvalue GAMMA=   0.1090
  0.1362  0.1362  0.0942  0.0695

 Free energy of the ion-electron system (eV)
  ---------------------------------------------------
  alpha Z        PSCENC =      1452.77266498
  Ewald energy   TEWEN  =    196169.61586266
  -Hartree energ DENC   =   -251295.34071050
  -exchange      EXHF   =         0.00000000
  -V(xc)+E(xc)   XCENC  =      1238.99546233
  PAW double counting   =     61254.95239036   -63795.77073658
  entropy T*S    EENTRO =        -2.80110096
  eigenvalues    EBANDS =     -1629.31903924
  atomic energy  EATOM  =     56161.11034558
  Solvation  Ediel_sol  =         0.00000000
  ---------------------------------------------------
  free energy    TOTEN  =      -445.78486137 eV

  energy without entropy =     -442.98376041  energy(sigma->0) =     -444.38431089


--------------------------------------------------------------------------------------------------------




--------------------------------------- Iteration      1(  10)  ---------------------------------------


    POTLOK:  cpu time    0.1846: real time    0.1960
    SETDIJ:  cpu time    0.0108: real time    0.0108
    EDDIAG:  cpu time    0.3109: real time    0.3109
  RMM-DIIS:  cpu time    1.6154: real time    1.6165
    ORTHCH:  cpu time    0.0676: real time    0.0676
       DOS:  cpu time    0.0018: real time    0.0018
    CHARGE:  cpu time    0.1083: real time    0.1083
    MIXING:  cpu time    0.0038: real time    0.0038
    --------------------------------------------
      LOOP:  cpu time    2.3031: real time    2.3156

 eigenvalue-minimisations  :   792
 total energy-change (2. order) :-0.1588355E+00  (-0.5135745E+00)
 number of electron     609.0000042 magnetization 
 augmentation part      335.0579756 magnetization 

 Broyden mixing:
  rms(total) = 0.30438E+01    rms(broyden)= 0.30437E+01
  rms(prec ) = 0.38940E+01
  weight for this iteration     100.00

 eigenvalues of (default mixing * dielectric matrix)
  average eigenvalue GAMMA=   0.1399
  0.2321  0.2321  0.1124  0.0800  0.0428

 Free energy of the ion-electron system (eV)
  ---------------------------------------------------
  alpha Z        PSCENC =      1452.77266498
  Ewald energy   TEWEN  =    196169.61586266
  -Hartree energ DENC   =   -251304.71689977
  -exchange      EXHF   =         0.00000000
  -V(xc)+E(xc)   XCENC  =      1238.98044628
  PAW double counting   =     61212.21397671   -63752.02559163
  entropy T*S    EENTRO =        -2.78056464
  eigenvalues    EBANDS =     -1621.11393707
  atomic energy  EATOM  =     56161.11034558
  Solvation  Ediel_sol  =         0.00000000
  ---------------------------------------------------
  free energy    TOTEN  =      -445.94369690 eV

  energy without entropy =     -443.16313225  energy(sigma->0) =     -444.55341457


--------------------------------------------------------------------------------------------------------




--------------------------------------- Iteration      1(  11)  ---------------------------------------


    POTLOK:  cpu time    0.1862: real time    0.1980
    SETDIJ:  cpu time    0.0107: real time    0.0107
    EDDIAG:  cpu time    0.3076: real time    0.3077
  RMM-DIIS:  cpu time    1.6119: real time    1.6124
    ORTHCH:  cpu time    0.0675: real time    0.0675
       DOS:  cpu time    0.0017: real time    0.0017
    CHARGE:  cpu time    0.1075: real time    0.1076
    MIXING:  cpu time    0.0040: real time    0.0040
    --------------------------------------------
      LOOP:  cpu time    2.2980: real time    2.3095

 eigenvalue-minimisations  :   787
 total energy-change (2. order) :-0.2727254E-01  (-0.4656171E+00)
 number of electron     609.0000041 magnetization 
 augmentation part      335.2580536 magnetization 

 Broyden mixing:
  rms(total) = 0.27388E+01    rms(broyden)= 0.27386E+01
  rms(prec ) = 0.32887E+01
  weight for this iteration     100.00

 eigenvalues of (default mixing * dielectric matrix)
  average eigenvalue GAMMA=   0.2078
  0.6504  0.2024  0.2024  0.0795  0.0718  0.0403

 Free energy of the ion-electron system (eV)
  ---------------------------------------------------
  alpha Z        PSCENC =      1452.77266498
  Ewald energy   TEWEN  =    196169.61586266
  -Hartree energ DENC   =   -251300.37652232
  -exchange      EXHF   =         0.00000000
  -V(xc)+E(xc)   XCENC  =      1238.78733851
  PAW double counting   =     61103.04624721   -63638.61848675
  entropy T*S    EENTRO =        -2.75604275
  eigenvalues    EBANDS =     -1629.55237656
  atomic energy  EATOM  =     56161.11034558
  Solvation  Ediel_sol  =         0.00000000
  ---------------------------------------------------
  free energy    TOTEN  =      -445.97096944 eV

  energy without entropy =     -443.21492669  energy(sigma->0) =     -444.59294807


--------------------------------------------------------------------------------------------------------




--------------------------------------- Iteration      1(  12)  ---------------------------------------


    POTLOK:  cpu time    0.1867: real time    0.1994
    SETDIJ:  cpu time    0.0106: real time    0.0106
    EDDIAG:  cpu time    0.3114: real time    0.3115
  RMM-DIIS:  cpu time    1.5069: real time    1.5073
    ORTHCH:  cpu time    0.0681: real time    0.0681
       DOS:  cpu time    0.0017: real time    0.0017
    CHARGE:  cpu time    0.1081: real time    0.1081
    MIXING:  cpu time    0.0040: real time    0.0040
    --------------------------------------------
      LOOP:  cpu time    2.1967: real time    2.2106

 eigenvalue-minimisations  :   737
 total energy-change (2. order) :-0.4407390E+01  (-0.1030775E+01)
 number of electron     609.0000041 magnetization 
 augmentation part      335.3439743 magnetization 

 Broyden mixing:
  rms(total) = 0.42015E+01    rms(broyden)= 0.42013E+01
  rms(prec ) = 0.49200E+01
  weight for this iteration     100.00

 eigenvalues of (default mixing * dielectric matrix)
  average eigenvalue GAMMA=   0.3124
  1.4078  0.2501  0.2501  0.0995  0.0701  0.0701  0.0392

 Free energy of the ion-electron system (eV)
  ---------------------------------------------------
  alpha Z        PSCENC =      1452.77266498
  Ewald energy   TEWEN  =    196169.61586266
  -Hartree energ DENC   =   -251315.26719630
  -exchange      EXHF   =         0.00000000
  -V(xc)+E(xc)   XCENC  =      1239.08014901
  PAW double counting   =     60936.99252561   -63469.39807409
  entropy T*S    EENTRO =        -2.68440849
  eigenvalues    EBANDS =     -1622.60022874
  atomic energy  EATOM  =     56161.11034558
  Solvation  Ediel_sol  =         0.00000000
  ---------------------------------------------------
  free energy    TOTEN  =      -450.37835978 eV

  energy without entropy =     -447.69395130  energy(sigma->0) =     -449.03615554


--------------------------------------------------------------------------------------------------------




--------------------------------------- Iteration      1(  13)  ---------------------------------------


    POTLOK:  cpu time    0.1872: real time    0.1994
    SETDIJ:  cpu time    0.0107: real time    0.0107
    EDDIAG:  cpu time    0.3074: real time    0.3077
  RMM-DIIS:  cpu time    1.5012: real time    1.5015
    ORTHCH:  cpu time    0.0673: real time    0.0673
       DOS:  cpu time    0.0016: real time    0.0016
    CHARGE:  cpu time    0.1084: real time    0.1084
    MIXING:  cpu time    0.0041: real time    0.0041
    --------------------------------------------
      LOOP:  cpu time    2.1879: real time    2.2007

 eigenvalue-minimisations  :   737
 total energy-change (2. order) :-0.4829528E+01  (-0.1574300E+01)
 number of electron     609.0000043 magnetization 
 augmentation part      334.7691235 magnetization 

 Broyden mixing:
  rms(total) = 0.55148E+01    rms(broyden)= 0.55146E+01
  rms(prec ) = 0.63261E+01
  weight for this iteration     100.00

 eigenvalues of (default mixing * dielectric matrix)
  average eigenvalue GAMMA=   0.3395
  1.7706  0.2833  0.2833  0.1247  0.0794  0.0711  0.0646  0.0393

 Free energy of the ion-electron system (eV)
  ---------------------------------------------------
  alpha Z        PSCENC =      1452.77266498
  Ewald energy   TEWEN  =    196169.61586266
  -Hartree energ DENC   =   -251323.79180908
  -exchange      EXHF   =         0.00000000
  -V(xc)+E(xc)   XCENC  =      1240.09536773
  PAW double counting   =     60778.75521194   -63311.93420046
  entropy T*S    EENTRO =        -2.58321287
  eigenvalues    EBANDS =     -1619.24811842
  atomic energy  EATOM  =     56161.11034558
  Solvation  Ediel_sol  =         0.00000000
  ---------------------------------------------------
  free energy    TOTEN  =      -455.20788795 eV

  energy without entropy =     -452.62467508  energy(sigma->0) =     -453.91628151


--------------------------------------------------------------------------------------------------------




--------------------------------------- Iteration      1(  14)  ---------------------------------------


    POTLOK:  cpu time    0.1862: real time    0.1980
    SETDIJ:  cpu time    0.0106: real time    0.0106
    EDDIAG:  cpu time    0.3099: real time    0.3099
  RMM-DIIS:  cpu time    1.4948: real time    1.4952
    ORTHCH:  cpu time    0.0674: real time    0.0674
       DOS:  cpu time    0.0017: real time    0.0017
    CHARGE:  cpu time    0.1080: real time    0.1080
    MIXING:  cpu time    0.0042: real time    0.0042
    --------------------------------------------
      LOOP:  cpu time    2.1829: real time    2.1952

 eigenvalue-minimisations  :   736
 total energy-change (2. order) : 0.7262422E+01  (-0.1112336E+01)
 number of electron     609.0000041 magnetization 
 augmentation part      335.1664368 magnetization 

 Broyden mixing:
  rms(total) = 0.33031E+01    rms(broyden)= 0.33028E+01
  rms(prec ) = 0.38115E+01
  weight for this iteration     100.00

 eigenvalues of (default mixing * dielectric matrix)
  average eigenvalue GAMMA=   0.3232
  1.8566  0.2875  0.2875  0.1471  0.0881  0.0393  0.0707  0.0707  0.0619

 Free energy of the ion-electron system (eV)
  ---------------------------------------------------
  alpha Z        PSCENC =      1452.77266498
  Ewald energy   TEWEN  =    196169.61586266
  -Hartree energ DENC   =   -251326.42617181
  -exchange      EXHF   =         0.00000000
  -V(xc)+E(xc)   XCENC  =      1240.24910593
  PAW double counting   =     60698.50923546   -63230.42148400
  entropy T*S    EENTRO =        -2.68429998
  eigenvalues    EBANDS =     -1610.67072466
  atomic energy  EATOM  =     56161.11034558
  Solvation  Ediel_sol  =         0.00000000
  ---------------------------------------------------
  free energy    TOTEN  =      -447.94546584 eV

  energy without entropy =     -445.26116586  energy(sigma->0) =     -446.60331585


--------------------------------------------------------------------------------------------------------




--------------------------------------- Iteration      1(  15)  ---------------------------------------


    POTLOK:  cpu time    0.1881: real time    0.2009
    SETDIJ:  cpu time    0.0107: real time    0.0107
    EDDIAG:  cpu time    0.3091: real time    0.3091
  RMM-DIIS:  cpu time    1.5025: real time    1.5033
    ORTHCH:  cpu time    0.0680: real time    0.0680
       DOS:  cpu time    0.0018: real time    0.0018
    CHARGE:  cpu time    0.1077: real time    0.1078
    MIXING:  cpu time    0.0044: real time    0.0044
    --------------------------------------------
      LOOP:  cpu time    2.1922: real time    2.2059

 eigenvalue-minimisations  :   734
 total energy-change (2. order) : 0.2902334E+01  (-0.3196762E+00)
 number of electron     609.0000042 magnetization 
 augmentation part      334.7919379 magnetization 

 Broyden mixing:
  rms(total) = 0.20176E+01    rms(broyden)= 0.20174E+01
  rms(prec ) = 0.23064E+01
  weight for this iteration     100.00

 eigenvalues of (default mixing * dielectric matrix)
  average eigenvalue GAMMA=   0.3218
  1.9506  0.3902  0.2283  0.2283  0.1091  0.0393  0.0789  0.0759  0.0615  0.0564

 Free energy of the ion-electron system (eV)
  ---------------------------------------------------
  alpha Z        PSCENC =      1452.77266498
  Ewald energy   TEWEN  =    196169.61586266
  -Hartree energ DENC   =   -251331.07615740
  -exchange      EXHF   =         0.00000000
  -V(xc)+E(xc)   XCENC  =      1240.27481005
  PAW double counting   =     60678.03747081   -63209.78310625
  entropy T*S    EENTRO =        -2.85441185
  eigenvalues    EBANDS =     -1603.14061051
  atomic energy  EATOM  =     56161.11034558
  Solvation  Ediel_sol  =         0.00000000
  ---------------------------------------------------
  free energy    TOTEN  =      -445.04313192 eV

  energy without entropy =     -442.18872008  energy(sigma->0) =     -443.61592600


--------------------------------------------------------------------------------------------------------




--------------------------------------- Iteration      1(  16)  ---------------------------------------


    POTLOK:  cpu time    0.1881: real time    0.1998
    SETDIJ:  cpu time    0.0106: real time    0.0106
    EDDIAG:  cpu time    0.3075: real time    0.3075
  RMM-DIIS:  cpu time    1.5066: real time    1.5073
    ORTHCH:  cpu time    0.0676: real time    0.0676
       DOS:  cpu time    0.0016: real time    0.0016
    CHARGE:  cpu time    0.1085: real time    0.1084
    MIXING:  cpu time    0.0046: real time    0.0046
    --------------------------------------------
      LOOP:  cpu time    2.1951: real time    2.2075

 eigenvalue-minimisations  :   739
 total energy-change (2. order) : 0.6827666E+00  (-0.1775632E+00)
 number of electron     609.0000043 magnetization 
 augmentation part      334.9728955 magnetization 

 Broyden mixing:
  rms(total) = 0.15163E+01    rms(broyden)= 0.15162E+01
  rms(prec ) = 0.17227E+01
  weight for this iteration     100.00

 eigenvalues of (default mixing * dielectric matrix)
  average eigenvalue GAMMA=   0.3311
  2.0858  0.5494  0.2406  0.2406  0.1100  0.1100  0.0822  0.0393  0.0664  0.0664
  0.0514

 Free energy of the ion-electron system (eV)
  ---------------------------------------------------
  alpha Z        PSCENC =      1452.77266498
  Ewald energy   TEWEN  =    196169.61586266
  -Hartree energ DENC   =   -251321.26728379
  -exchange      EXHF   =         0.00000000
  -V(xc)+E(xc)   XCENC  =      1240.14936062
  PAW double counting   =     60637.71981237   -63167.77553664
  entropy T*S    EENTRO =        -2.91761331
  eigenvalues    EBANDS =     -1613.76797775
  atomic energy  EATOM  =     56161.11034558
  Solvation  Ediel_sol  =         0.00000000
  ---------------------------------------------------
  free energy    TOTEN  =      -444.36036528 eV

  energy without entropy =     -441.44275197  energy(sigma->0) =     -442.90155862


--------------------------------------------------------------------------------------------------------




--------------------------------------- Iteration      1(  17)  ---------------------------------------


    POTLOK:  cpu time    0.1905: real time    0.2026
    SETDIJ:  cpu time    0.0106: real time    0.0106
    EDDIAG:  cpu time    0.3103: real time    0.3104
  RMM-DIIS:  cpu time    1.4944: real time    1.4947
    ORTHCH:  cpu time    0.0673: real time    0.0673
       DOS:  cpu time    0.0018: real time    0.0018
    CHARGE:  cpu time    0.1105: real time    0.1105
    MIXING:  cpu time    0.0055: real time    0.0054
    --------------------------------------------
      LOOP:  cpu time    2.1908: real time    2.2033

 eigenvalue-minimisations  :   739
 total energy-change (2. order) :-0.4787734E-01  (-0.1040159E+00)
 number of electron     609.0000041 magnetization 
 augmentation part      334.9664338 magnetization 

 Broyden mixing:
  rms(total) = 0.16912E+01    rms(broyden)= 0.16911E+01
  rms(prec ) = 0.19248E+01
  weight for this iteration     100.00

 eigenvalues of (default mixing * dielectric matrix)
  average eigenvalue GAMMA=   0.3445
  2.2634  0.7365  0.2512  0.2512  0.1326  0.1326  0.0831  0.0393  0.0684  0.0684
  0.0595  0.0482

 Free energy of the ion-electron system (eV)
  ---------------------------------------------------
  alpha Z        PSCENC =      1452.77266498
  Ewald energy   TEWEN  =    196169.61586266
  -Hartree energ DENC   =   -251322.57139270
  -exchange      EXHF   =         0.00000000
  -V(xc)+E(xc)   XCENC  =      1240.03752580
  PAW double counting   =     60593.71063500   -63122.30892636
  entropy T*S    EENTRO =        -2.91566399
  eigenvalues    EBANDS =     -1613.85929360
  atomic energy  EATOM  =     56161.11034558
  Solvation  Ediel_sol  =         0.00000000
  ---------------------------------------------------
  free energy    TOTEN  =      -444.40824262 eV

  energy without entropy =     -441.49257864  energy(sigma->0) =     -442.95041063


--------------------------------------------------------------------------------------------------------




--------------------------------------- Iteration      1(  18)  ---------------------------------------


    POTLOK:  cpu time    0.1865: real time    0.1991
    SETDIJ:  cpu time    0.0106: real time    0.0106
    EDDIAG:  cpu time    0.3087: real time    0.3091
[...]
      8.815571  2.192677  4.079497            0           0           0  
      1.260357  2.176827  4.063429            0           0           0  
      2.523341  1.439958  6.105426            0           0           0  
      6.287892  2.211107  4.105703            0           0           0  
      3.801807  0.734234  2.000365            0           0           0  
      3.772956  0.749084  8.122247            0           0           0  
      7.556923  1.454700  6.153138            0           0           0  
      6.318840  0.741083  2.033840            0           0           0  
      6.299532  0.758854  8.152916            0           0           0  
      7.570506  4.365760  4.102834            0           0           0  
      5.038171  4.362287  4.081707            0           0           0  
      3.779274  3.662382  6.086381            0           0           0  
      2.554616  2.916038  2.000833            0           0           0  
      2.520136  2.883729  8.101141            0           0           0  
      6.282162  3.640712  6.108995            0           0           0  
      7.585848  2.930427  2.033712            0           0           0  
      7.552361  2.903890  8.172572            0           0           0  
      6.294246  6.551326  4.092632            0           0           0  
     -2.526262  5.823414  6.098798            0           0           0  
      3.813887  6.575459  4.072844            0           0           0  
      1.268710  5.104157  2.045338            0           0           0  
      1.223475  5.082481  8.138818            0           0           0  
      6.294498  5.113735  2.028229            0           0           0  
      6.228137  5.124988  8.163621            0           0           0  
     -2.531390  7.303045  2.009908            0           0           0  
     -2.559413  7.315468  8.016405            0           0           0  
      0.004636  7.289749  2.057219            0           0           0  
     -0.027813  7.278640  8.183492            0           0           0  
      5.085834  7.283180  2.027570            0           0           0  
      5.039559  7.296815  8.089136            0           0           0  
      7.544053  0.039694  4.104385            0           0           0  
     -0.038793  1.405871  6.045485            0           0           0  
      3.741862  2.146894  4.073886            0           0           0  
      1.310005  0.729449  2.026741            0           0           0  
      1.339168  0.750242  8.161055            0           0           0  
      5.080075  1.457789  6.068388            0           0           0  
      8.827908  0.750635  2.000004            0           0           0  
      8.786723  0.766800  8.149535            0           0           0  
     -0.024064  4.344636  4.116840            0           0           0  
     -1.335555  3.653724  6.105714            0           0           0  
      2.557020  4.370247  4.058689            0           0           0  
      1.290258  3.645009  6.065722            0           0           0  
      0.022150  2.949898  2.029844            0           0           0  
     -0.014960  2.899536  8.006385            0           0           0  
      5.097187  2.938868  2.040429            0           0           0  
      5.032800  2.936535  8.052799            0           0           0  
     -1.327635  6.583961  4.111250            0           0           0  
      1.246999  6.559320  4.093631            0           0           0  
      0.118137  5.883630  6.135926            0           0           0  
     -1.297178  5.128186  2.068654            0           0           0  
     -1.258917  5.161904  8.177148            0           0           0  
      2.504444  5.879263  6.117574            0           0           0  
      5.030923  5.784411  6.124957            0           0           0  
      3.792606  5.110613  2.023341            0           0           0  
      3.775331  5.134029  8.263607            0           0           0  
     -3.803515  8.014987  6.052376            0           0           0  
     -1.244726  7.996114  6.117451            0           0           0  
      1.294195  7.961905  6.132642            0           0           0  
      3.684285  7.962430  6.110354            0           0           0  
      2.541829  7.290825  2.053075            0           0           0  
      2.514011  7.287596  8.292614            0           0           0  
      0.005747  0.108213  9.263122            0           0           0  
      2.507715  4.302735  9.291176            0           0           0  
     -2.520294  4.409103  9.269609            0           0           0  
      5.016229  0.037209  9.270253            0           0           0  
      2.702842  7.253913 10.078618     0.056862   -0.307255   -0.013888  
      3.438060  7.758661 10.478819     0.536053   -0.780803   -0.071856  
 
   5 f  =    5.046342 THz    31.707105 2PiTHz  168.327861 cm-1    20.870002 meV
             X         Y         Z           dx          dy          dz
     10.087402  0.005616  4.049338            0           0           0  
     -2.533390  8.735124  4.081899            0           0           0  
      5.030576  0.016856  4.076606            0           0           0  
      8.815571  2.192677  4.079497            0           0           0  
      1.260357  2.176827  4.063429            0           0           0  
      2.523341  1.439958  6.105426            0           0           0  
      6.287892  2.211107  4.105703            0           0           0  
      3.801807  0.734234  2.000365            0           0           0  
      3.772956  0.749084  8.122247            0           0           0  
      7.556923  1.454700  6.153138            0           0           0  
      6.318840  0.741083  2.033840            0           0           0  
      6.299532  0.758854  8.152916            0           0           0  
      7.570506  4.365760  4.102834            0           0           0  
      5.038171  4.362287  4.081707            0           0           0  
      3.779274  3.662382  6.086381            0           0           0  
      2.554616  2.916038  2.000833            0           0           0  
      2.520136  2.883729  8.101141            0           0           0  
      6.282162  3.640712  6.108995            0           0           0  
      7.585848  2.930427  2.033712            0           0           0  
      7.552361  2.903890  8.172572            0           0           0  
      6.294246  6.551326  4.092632            0           0           0  
     -2.526262  5.823414  6.098798            0           0           0  
      3.813887  6.575459  4.072844            0           0           0  
      1.268710  5.104157  2.045338            0           0           0  
      1.223475  5.082481  8.138818            0           0           0  
      6.294498  5.113735  2.028229            0           0           0  
      6.228137  5.124988  8.163621            0           0           0  
     -2.531390  7.303045  2.009908            0           0           0  
     -2.559413  7.315468  8.016405            0           0           0  
      0.004636  7.289749  2.057219            0           0           0  
     -0.027813  7.278640  8.183492            0           0           0  
      5.085834  7.283180  2.027570            0           0           0  
      5.039559  7.296815  8.089136            0           0           0  
      7.544053  0.039694  4.104385            0           0           0  
     -0.038793  1.405871  6.045485            0           0           0  
      3.741862  2.146894  4.073886            0           0           0  
      1.310005  0.729449  2.026741            0           0           0  
      1.339168  0.750242  8.161055            0           0           0  
      5.080075  1.457789  6.068388            0           0           0  
      8.827908  0.750635  2.000004            0           0           0  
      8.786723  0.766800  8.149535            0           0           0  
     -0.024064  4.344636  4.116840            0           0           0  
     -1.335555  3.653724  6.105714            0           0           0  
      2.557020  4.370247  4.058689            0           0           0  
      1.290258  3.645009  6.065722            0           0           0  
      0.022150  2.949898  2.029844            0           0           0  
     -0.014960  2.899536  8.006385            0           0           0  
      5.097187  2.938868  2.040429            0           0           0  
      5.032800  2.936535  8.052799            0           0           0  
     -1.327635  6.583961  4.111250            0           0           0  
      1.246999  6.559320  4.093631            0           0           0  
      0.118137  5.883630  6.135926            0           0           0  
     -1.297178  5.128186  2.068654            0           0           0  
     -1.258917  5.161904  8.177148            0           0           0  
      2.504444  5.879263  6.117574            0           0           0  
      5.030923  5.784411  6.124957            0           0           0  
      3.792606  5.110613  2.023341            0           0           0  
      3.775331  5.134029  8.263607            0           0           0  
     -3.803515  8.014987  6.052376            0           0           0  
     -1.244726  7.996114  6.117451            0           0           0  
      1.294195  7.961905  6.132642            0           0           0  
      3.684285  7.962430  6.110354            0           0           0  
      2.541829  7.290825  2.053075            0           0           0  
      2.514011  7.287596  8.292614            0           0           0  
      0.005747  0.108213  9.263122            0           0           0  
      2.507715  4.302735  9.291176            0           0           0  
     -2.520294  4.409103  9.269609            0           0           0  
      5.016229  0.037209  9.270253            0           0           0  
      2.702842  7.253913 10.078618    -0.780850   -0.522376    0.072931  
      3.438060  7.758661 10.478819    -0.299682   -0.070452    0.131547  
 
   6 f  =    1.751217 THz    11.003219 2PiTHz   58.414300 cm-1     7.242453 meV
             X         Y         Z           dx          dy          dz
     10.087402  0.005616  4.049338            0           0           0  
     -2.533390  8.735124  4.081899            0           0           0  
      5.030576  0.016856  4.076606            0           0           0  
      8.815571  2.192677  4.079497            0           0           0  
      1.260357  2.176827  4.063429            0           0           0  
      2.523341  1.439958  6.105426            0           0           0  
      6.287892  2.211107  4.105703            0           0           0  
      3.801807  0.734234  2.000365            0           0           0  
      3.772956  0.749084  8.122247            0           0           0  
      7.556923  1.454700  6.153138            0           0           0  
      6.318840  0.741083  2.033840            0           0           0  
      6.299532  0.758854  8.152916            0           0           0  
      7.570506  4.365760  4.102834            0           0           0  
      5.038171  4.362287  4.081707            0           0           0  
      3.779274  3.662382  6.086381            0           0           0  
      2.554616  2.916038  2.000833            0           0           0  
      2.520136  2.883729  8.101141            0           0           0  
      6.282162  3.640712  6.108995            0           0           0  
      7.585848  2.930427  2.033712            0           0           0  
      7.552361  2.903890  8.172572            0           0           0  
      6.294246  6.551326  4.092632            0           0           0  
     -2.526262  5.823414  6.098798            0           0           0  
      3.813887  6.575459  4.072844            0           0           0  
      1.268710  5.104157  2.045338            0           0           0  
      1.223475  5.082481  8.138818            0           0           0  
      6.294498  5.113735  2.028229            0           0           0  
      6.228137  5.124988  8.163621            0           0           0  
     -2.531390  7.303045  2.009908            0           0           0  
     -2.559413  7.315468  8.016405            0           0           0  
      0.004636  7.289749  2.057219            0           0           0  
     -0.027813  7.278640  8.183492            0           0           0  
      5.085834  7.283180  2.027570            0           0           0  
      5.039559  7.296815  8.089136            0           0           0  
      7.544053  0.039694  4.104385            0           0           0  
     -0.038793  1.405871  6.045485            0           0           0  
      3.741862  2.146894  4.073886            0           0           0  
      1.310005  0.729449  2.026741            0           0           0  
      1.339168  0.750242  8.161055            0           0           0  
      5.080075  1.457789  6.068388            0           0           0  
      8.827908  0.750635  2.000004            0           0           0  
      8.786723  0.766800  8.149535            0           0           0  
     -0.024064  4.344636  4.116840            0           0           0  
     -1.335555  3.653724  6.105714            0           0           0  
      2.557020  4.370247  4.058689            0           0           0  
      1.290258  3.645009  6.065722            0           0           0  
      0.022150  2.949898  2.029844            0           0           0  
     -0.014960  2.899536  8.006385            0           0           0  
      5.097187  2.938868  2.040429            0           0           0  
      5.032800  2.936535  8.052799            0           0           0  
     -1.327635  6.583961  4.111250            0           0           0  
      1.246999  6.559320  4.093631            0           0           0  
      0.118137  5.883630  6.135926            0           0           0  
     -1.297178  5.128186  2.068654            0           0           0  
     -1.258917  5.161904  8.177148            0           0           0  
      2.504444  5.879263  6.117574            0           0           0  
      5.030923  5.784411  6.124957            0           0           0  
      3.792606  5.110613  2.023341            0           0           0  
      3.775331  5.134029  8.263607            0           0           0  
     -3.803515  8.014987  6.052376            0           0           0  
     -1.244726  7.996114  6.117451            0           0           0  
      1.294195  7.961905  6.132642            0           0           0  
      3.684285  7.962430  6.110354            0           0           0  
      2.541829  7.290825  2.053075            0           0           0  
      2.514011  7.287596  8.292614            0           0           0  
      0.005747  0.108213  9.263122            0           0           0  
      2.507715  4.302735  9.291176            0           0           0  
     -2.520294  4.409103  9.269609            0           0           0  
      5.016229  0.037209  9.270253            0           0           0  
      2.702842  7.253913 10.078618     0.563291   -0.774693   -0.036092  
      3.438060  7.758661 10.478819    -0.168440    0.228483    0.025968  
 
 Finite differences POTIM=  1.500000000000000E-002
     LOOP+:  cpu time   64.7795: real time   65.0941
    4ORBIT:  cpu time    0.0000: real time    0.0000
 


 total charge     
 
# of ion       s       p       d       tot
------------------------------------------
    1        0.499   0.498   8.302   9.299
    2        0.503   0.504   8.306   9.314
    3        0.502   0.495   8.309   9.307
    4        0.501   0.501   8.305   9.306
    5        0.506   0.509   8.293   9.309
    6        0.513   0.511   8.311   9.335
    7        0.497   0.494   8.310   9.302
    8        0.488   0.354   8.310   9.152
    9        0.509   0.518   8.317   9.344
   10        0.520   0.522   8.307   9.349
   11        0.496   0.360   8.309   9.166
   12        0.501   0.505   8.313   9.320
   13        0.496   0.493   8.318   9.307
   14        0.500   0.500   8.310   9.309
   15        0.514   0.511   8.306   9.332
   16        0.501   0.372   8.295   9.168
   17        0.504   0.515   8.322   9.340
   18        0.511   0.499   8.328   9.339
   19        0.496   0.368   8.303   9.167
   20        0.494   0.492   8.317   9.303
   21        0.491   0.483   8.324   9.298
   22        0.510   0.498   8.312   9.321
   23        0.503   0.509   8.294   9.306
   24        0.505   0.378   8.294   9.177
   25        0.497   0.497   8.311   9.306
   26        0.495   0.361   8.317   9.173
   27        0.489   0.481   8.316   9.285
   28        0.495   0.357   8.313   9.165
   29        0.501   0.374   8.363   9.239
   30        0.491   0.359   8.306   9.155
   31        0.498   0.499   8.309   9.306
   32        0.495   0.366   8.310   9.171
   33        0.486   0.475   8.312   9.272
   34        0.456   0.486   6.247   7.188
   35        0.465   0.484   6.255   7.203
   36        0.454   0.477   6.253   7.185
   37        0.449   0.345   6.245   7.038
   38        0.457   0.479   6.293   7.229
   39        0.467   0.481   6.272   7.220
   40        0.448   0.341   6.232   7.021
   41        0.457   0.484   6.290   7.231
   42        0.467   0.493   6.249   7.210
   43        0.466   0.481   6.266   7.212
   44        0.461   0.486   6.256   7.202
   45        0.472   0.486   6.274   7.233
   46        0.450   0.347   6.243   7.040
   47        0.461   0.357   6.298   7.115
   48        0.447   0.344   6.249   7.040
   49        0.443   0.350   6.305   7.098
   50        0.458   0.486   6.248   7.192
   51        0.468   0.493   6.261   7.222
   52        0.492   0.521   6.281   7.294
   53        0.453   0.347   6.246   7.046
   54        0.455   0.477   6.275   7.207
   55        0.489   0.519   6.280   7.288
   56        0.467   0.484   6.267   7.217
   57        0.454   0.353   6.247   7.054
   58        0.447   0.475   6.277   7.199
   59        0.465   0.483   6.268   7.216
   60        0.467   0.483   6.279   7.229
   61        0.491   0.515   6.292   7.298
   62        0.482   0.504   6.267   7.252
   63        0.454   0.349   6.245   7.048
   64        0.469   0.505   6.273   7.246
   65        1.582   3.340   0.000   4.922
   66        1.584   3.330   0.000   4.915
   67        1.583   3.333   0.000   4.915
   68        1.584   3.330   0.000   4.914
   69        1.572   3.473   0.000   5.046
   70        0.616   0.124   0.000   0.740
--------------------------------------------------
tot         39.358  46.005 468.505 553.868
 

 total amount of memory used by VASP MPI-rank0    55307. kBytes
=======================================================================

   base      :      30000. kBytes
   nonlr-proj:       4034. kBytes
   fftplans  :       5965. kBytes
   grid      :      13166. kBytes
   one-center:         23. kBytes
   wavefun   :       2119. kBytes
 
  
  
 General timing and accounting informations for this job:
 ========================================================
  
                  Total CPU time used (sec):      769.866
                            User time (sec):      760.307
                          System time (sec):        9.559
                         Elapsed time (sec):      774.077
  
                   Maximum memory used (kb):      296408.
                   Average memory used (kb):           0.
  
                          Minor page faults:      2752705
                          Major page faults:            0
                 Voluntary context switches:         1500
