       N       E                     dE             d eps       ncg     rms          rms(c)
DAV:   1     0.902246312052E+04    0.90225E+04   -0.38274E+05 22176   0.195E+03
DAV:   2     0.518834649337E+03   -0.85036E+04   -0.79825E+04 22176   0.419E+02
DAV:   3    -0.757300061934E+03   -0.12761E+04   -0.10123E+04 22176   0.202E+02
DAV:   4    -0.847358145987E+03   -0.90058E+02   -0.84489E+02 23463   0.624E+01
DAV:   5    -0.848791215301E+03   -0.14331E+01   -0.14270E+01 24021   0.804E+00    0.109E+02
RMM:   6    -0.812915960190E+03    0.35875E+02   -0.10394E+03 23240   0.740E+01    0.126E+02
RMM:   7    -0.102444445207E+04   -0.21153E+03   -0.30193E+02 24057   0.348E+01    0.229E+02
RMM:   8    -0.862180409285E+03    0.16226E+03   -0.98427E+01 23819   0.212E+01    0.158E+02
RMM:   9    -0.761176653737E+03    0.10100E+03   -0.82514E+01 23610   0.185E+01    0.783E+01
RMM:  10    -0.784627249395E+03   -0.23451E+02   -0.57697E+01 23596   0.150E+01    0.112E+02
RMM:  11    -0.769375352385E+03    0.15252E+02   -0.37093E+01 23698   0.124E+01    0.920E+01
RMM:  12    -0.745536141832E+03    0.23839E+02   -0.30382E+01 23312   0.114E+01    0.514E+01
RMM:  13    -0.746441944878E+03   -0.90580E+00   -0.12012E+01 23414   0.695E+00    0.488E+01
RMM:  14    -0.741034464509E+03    0.54075E+01   -0.56398E+00 23353   0.485E+00    0.400E+01
RMM:  15    -0.738907584772E+03    0.21269E+01   -0.45370E+00 23106   0.428E+00    0.299E+01
RMM:  16    -0.740432702079E+03   -0.15251E+01   -0.23235E+00 22970   0.303E+00    0.302E+01
RMM:  17    -0.739448583135E+03    0.98412E+00   -0.13835E+00 23199   0.231E+00    0.229E+01
RMM:  18    -0.738893592513E+03    0.55499E+00   -0.80977E-01 23125   0.173E+00    0.181E+01
RMM:  19    -0.740037258568E+03   -0.11437E+01   -0.97573E-01 22936   0.189E+00    0.202E+01
RMM:  20    -0.739999487636E+03    0.37771E-01   -0.74032E-01 23011   0.170E+00    0.168E+01
RMM:  21    -0.740196566584E+03   -0.19708E+00   -0.55644E-01 22873   0.142E+00    0.158E+01
RMM:  22    -0.740912376666E+03   -0.71581E+00   -0.61650E-01 22893   0.145E+00    0.143E+01
RMM:  23    -0.740961633748E+03   -0.49257E-01   -0.66047E-01 22772   0.156E+00    0.110E+01
RMM:  24    -0.741672299646E+03   -0.71067E+00   -0.80284E-01 23146   0.162E+00    0.120E+01
RMM:  25    -0.741315392897E+03    0.35691E+00   -0.58466E-01 22995   0.152E+00    0.731E+00
RMM:  26    -0.741520772706E+03   -0.20538E+00   -0.31373E-01 23486   0.103E+00    0.807E+00
RMM:  27    -0.741353953712E+03    0.16682E+00   -0.23467E-01 23453   0.971E-01    0.476E+00
RMM:  28    -0.741444616174E+03   -0.90662E-01   -0.16495E-01 23472   0.779E-01    0.599E+00
RMM:  29    -0.741318766300E+03    0.12585E+00   -0.10898E-01 23162   0.672E-01    0.265E+00
RMM:  30    -0.741350968743E+03   -0.32202E-01   -0.61243E-02 23315   0.478E-01    0.347E+00
RMM:  31    -0.741320528526E+03    0.30440E-01   -0.28123E-02 23203   0.349E-01    0.167E+00
RMM:  32    -0.741328652365E+03   -0.81238E-02   -0.13394E-02 23252   0.223E-01    0.173E+00
RMM:  33    -0.741327877048E+03    0.77532E-03   -0.83837E-03 23119   0.178E-01    0.110E+00
RMM:  34    -0.741331784227E+03   -0.39072E-02   -0.70862E-03 23378   0.162E-01    0.122E+00
RMM:  35    -0.741329663214E+03    0.21210E-02   -0.51840E-03 23193   0.142E-01    0.663E-01
RMM:  36    -0.741331630308E+03   -0.19671E-02   -0.32273E-03 23256   0.110E-01    0.749E-01
RMM:  37    -0.741330648089E+03    0.98222E-03   -0.17239E-03 22936   0.853E-02    0.363E-01
RMM:  38    -0.741331789040E+03   -0.11410E-02   -0.11313E-03 23259   0.650E-02    0.483E-01
RMM:  39    -0.741331376568E+03    0.41247E-03   -0.68525E-04 22919   0.537E-02    0.245E-01
RMM:  40    -0.741331558271E+03   -0.18170E-03   -0.29967E-04 23258   0.334E-02    0.243E-01
RMM:  41    -0.741331620295E+03   -0.62025E-04   -0.15980E-04 23413   0.253E-02    0.127E-01
RMM:  42    -0.741331713630E+03   -0.93335E-04   -0.10490E-04 23469   0.200E-02    0.144E-01
RMM:  43    -0.741331761505E+03   -0.47875E-04   -0.60568E-05 23377   0.158E-02    0.727E-02
RMM:  44    -0.741331786301E+03   -0.24796E-04   -0.33917E-05 23272   0.113E-02    0.783E-02
RMM:  45    -0.741331785219E+03    0.10819E-05   -0.21373E-05 23299   0.901E-03    0.313E-02
RMM:  46    -0.741331774919E+03    0.10300E-04   -0.70839E-06 22653   0.516E-03    0.350E-02
RMM:  47    -0.741331758389E+03    0.16530E-04   -0.33210E-06 18346   0.386E-03    0.186E-02
RMM:  48    -0.741331753305E+03    0.50843E-05   -0.27440E-06 16316   0.334E-03    0.231E-02
RMM:  49    -0.741331746996E+03    0.63090E-05   -0.21012E-06 13623   0.326E-03    0.107E-02
RMM:  50    -0.741331747853E+03   -0.85737E-06   -0.12556E-06 12710   0.227E-03
   1 F= -.74133175E+03 E0= -.74133175E+03  d E =0.000000E+00  mag=   174.1601
