 vasp.5.4.4.18Apr17-6-g9f103f2a35 (build Sep 06 2021 19:49:22) complex          
  
 executed on             LinuxIFC date 2021.12.27  03:09:36
 running on   96 total cores
 distrk:  each k-point on   96 cores,    1 groups
 distr:  one band on NCORES_PER_BAND=  32 cores,    3 groups


--------------------------------------------------------------------------------------------------------


 INCAR:
 POTCAR:    PAW_PBE Fe 06Sep2000                  
 POTCAR:    PAW_PBE Ni 02Aug2007                  

 ----------------------------------------------------------------------------- 
|                                                                             |
|           W    W    AA    RRRRR   N    N  II  N    N   GGGG   !!!           |
|           W    W   A  A   R    R  NN   N  II  NN   N  G    G  !!!           |
|           W    W  A    A  R    R  N N  N  II  N N  N  G       !!!           |
|           W WW W  AAAAAA  RRRRR   N  N N  II  N  N N  G  GGG   !            |
|           WW  WW  A    A  R   R   N   NN  II  N   NN  G    G                |
|           W    W  A    A  R    R  N    N  II  N    N   GGGG   !!!           |
|                                                                             |
|      For optimal performance we recommend to set                            |
|        NCORE= 4 - approx SQRT( number of cores)                             |
|      NCORE specifies how many cores store one orbital (NPAR=cpu/NCORE).     |
|      This setting can  greatly improve the performance of VASP for DFT.     |
|      The default,   NCORE=1            might be grossly inefficient         |
|      on modern multi-core architectures or massively parallel machines.     |
|      Do your own testing !!!!                                               |
|      Unfortunately you need to use the default for GW and RPA calculations. |
|      (for HF NCORE is supported but not extensively tested yet)             |
|                                                                             |
 ----------------------------------------------------------------------------- 

 POTCAR:    PAW_PBE Fe 06Sep2000                  
   VRHFIN =Fe:  d7 s1                                                           
   LEXCH  = PE                                                                  
   EATOM  =   594.3153 eV,   43.6809 Ry                                         
                                                                                
   TITEL  = PAW_PBE Fe 06Sep2000                                                
   LULTRA =        F    use ultrasoft PP ?                                      
   IUNSCR =        1    unscreen: 0-lin 1-nonlin 2-no                           
   RPACOR =    2.000    partial core radius                                     
   POMASS =   55.847; ZVAL   =    8.000    mass and valenz                      
   RCORE  =    2.300    outmost cutoff radius                                   
   RWIGS  =    2.460; RWIGS  =    1.302    wigner-seitz radius (au A)           
   ENMAX  =  267.882; ENMIN  =  200.911 eV                                      
   RCLOC  =    1.701    cutoff for local pot                                    
   LCOR   =        T    correct aug charges                                     
   LPAW   =        T    paw PP                                                  
   EAUG   =  511.368                                                            
   DEXC   =    0.000                                                            
   RMAX   =    2.356    core radius for proj-oper                               
   RAUG   =    1.300    factor for augmentation sphere                          
   RDEP   =    2.442    radius for radial grids                                 
   RDEPT  =    1.890    core radius for aug-charge                              
                                                                                
   Atomic configuration                                                         
    9 entries                                                                   
     n  l   j            E        occ.                                          
     1  0  0.50     -6993.8440   2.0000                                         
     2  0  0.50      -814.6047   2.0000                                         
     2  1  1.50      -693.3689   6.0000                                         
     3  0  0.50       -89.4732   2.0000                                         
     3  1  1.50       -55.6373   6.0000                                         
     3  2  2.50        -3.8151   7.0000                                         
     4  0  0.50        -4.2551   1.0000                                         
     4  1  1.50        -3.4015   0.0000                                         
     4  3  2.50        -1.3606   0.0000                                         
   Description                                                                  
     l       E           TYP  RCUT    TYP  RCUT                                 
     2     -3.8151135     23  2.300                                             
     2     -5.1756961     23  2.300                                             
     0     -4.2550963     23  2.300                                             
     0      7.2035603     23  2.300                                             
     1     -2.7211652     23  2.300                                             
     1     18.4316424     23  2.300                                             
  local pseudopotential read in
  partial core-charges read in
  partial kinetic energy density read in
  atomic valenz-charges read in
  non local Contribution for L=           2  read in
    real space projection operators read in
  non local Contribution for L=           2  read in
    real space projection operators read in
  non local Contribution for L=           0  read in
    real space projection operators read in
  non local Contribution for L=           0  read in
    real space projection operators read in
  non local Contribution for L=           1  read in
    real space projection operators read in
  non local Contribution for L=           1  read in
    real space projection operators read in
    PAW grid and wavefunctions read in
 
   number of l-projection  operators is LMAX  =           6
   number of lm-projection operators is LMMAX =          18
 
 POTCAR:    PAW_PBE Ni 02Aug2007                  
   VRHFIN =Ni:                                                                  
   LEXCH  = PE                                                                  
   EATOM  =  1077.6739 eV,   79.2068 Ry                                         
                                                                                
   TITEL  = PAW_PBE Ni 02Aug2007                                                
   LULTRA =        F    use ultrasoft PP ?                                      
   IUNSCR =        1    unscreen: 0-lin 1-nonlin 2-no                           
   RPACOR =    2.000    partial core radius                                     
   POMASS =   58.690; ZVAL   =   10.000    mass and valenz                      
   RCORE  =    2.300    outmost cutoff radius                                   
   RWIGS  =    2.430; RWIGS  =    1.286    wigner-seitz radius (au A)           
   ENMAX  =  269.532; ENMIN  =  202.149 eV                                      
   RCLOC  =    1.201    cutoff for local pot                                    
   LCOR   =        T    correct aug charges                                     
   LPAW   =        T    paw PP                                                  
   EAUG   =  544.565                                                            
   DEXC   =    0.000                                                            
   RMAX   =    2.357    core radius for proj-oper                               
   RAUG   =    1.300    factor for augmentation sphere                          
   RDEP   =    2.390    radius for radial grids                                 
   RDEPT  =    1.838    core radius for aug-charge                              
                                                                                
   Atomic configuration                                                         
    9 entries                                                                   
     n  l   j            E        occ.                                          
     1  0  0.50     -8206.4253   2.0000                                         
     2  0  0.50      -976.1748   2.0000                                         
     2  1  1.50      -839.0571   6.0000                                         
     3  0  0.50      -105.9991   2.0000                                         
     3  1  1.50       -66.4603   6.0000                                         
     3  2  2.50        -4.6458   9.0000                                         
     4  0  0.50        -4.4926   1.0000                                         
     4  1  1.50        -4.0817   0.0000                                         
     4  3  2.50        -1.3606   0.0000                                         
   Description                                                                  
     l       E           TYP  RCUT    TYP  RCUT                                 
     2     -4.6457903     23  2.300                                             
     2     -6.0063729     23  2.300                                             
     0     -4.4925590     23  2.300                                             
     0      5.0102601     23  2.300                                             
     1     -2.7211652     23  2.300                                             
     1     16.5183231     23  2.300                                             
  local pseudopotential read in
  partial core-charges read in
  partial kinetic energy density read in
  atomic valenz-charges read in
  non local Contribution for L=           2  read in
    real space projection operators read in
  non local Contribution for L=           2  read in
    real space projection operators read in
  non local Contribution for L=           0  read in
    real space projection operators read in
  non local Contribution for L=           0  read in
    real space projection operators read in
  non local Contribution for L=           1  read in
    real space projection operators read in
  non local Contribution for L=           1  read in
    real space projection operators read in
    PAW grid and wavefunctions read in
 
   number of l-projection  operators is LMAX  =           6
   number of lm-projection operators is LMMAX =          18
 
 Optimization of the real space projectors (new method)

 maximal supplied QI-value         = 16.25
 optimisation between [QCUT,QGAM] = [ 11.54, 23.24] = [ 37.28,151.24] Ry 
 Optimized for a Real-space Cutoff    1.53 Angstroem

   l    n(q)    QCUT    max X(q) W(low)/X(q) W(high)/X(q)  e(spline) 
   2     10    11.539    80.901    0.11E-03    0.14E-03    0.21E-06
   2     10    11.539    75.754    0.11E-03    0.14E-03    0.22E-06
   0     11    11.539    58.752    0.52E-04    0.18E-04    0.33E-06
   0     11    11.539    30.679    0.44E-04    0.16E-04    0.30E-06
   1     10    11.539    17.977    0.53E-04    0.29E-04    0.13E-06
   1     10    11.539    13.559    0.44E-04    0.25E-04    0.11E-06
 Optimization of the real space projectors (new method)

 maximal supplied QI-value         = 16.25
 optimisation between [QCUT,QGAM] = [ 11.54, 23.24] = [ 37.28,151.24] Ry 
 Optimized for a Real-space Cutoff    1.45 Angstroem

   l    n(q)    QCUT    max X(q) W(low)/X(q) W(high)/X(q)  e(spline) 
   2      9    11.539    60.317    0.19E-03    0.47E-04    0.16E-06
   2      9    11.539    55.921    0.19E-03    0.48E-04    0.16E-06
   0     10    11.539    51.690    0.80E-04    0.50E-04    0.24E-06
   0     10    11.539    30.015    0.73E-04    0.45E-04    0.22E-06
   1     10    11.539    18.849    0.87E-04    0.16E-03    0.71E-07
   1     10    11.539    14.624    0.73E-04    0.13E-03    0.64E-07
  PAW_PBE Fe 06Sep2000                  :
 energy of atom  1       EATOM= -594.3153
 kinetic energy error for atom=    0.0026 (will be added to EATOM!!)
  PAW_PBE Ni 02Aug2007                  :
 energy of atom  2       EATOM=-1077.6739
 kinetic energy error for atom=    0.0030 (will be added to EATOM!!)
 
 
 POSCAR: POSCAR                                  
  positions in direct lattice
  velocities in cartesian coordinates
 exchange correlation table for  LEXCH =        8
   RHO(1)=    0.500       N(1)  =     2000
   RHO(2)=  100.500       N(2)  =     4000
 


--------------------------------------------------------------------------------------------------------


 ion  position               nearest neighbor table
   1  0.157  0.109  0.916-  71 2.50   3 2.50  62 2.51  58 2.52  37 2.52  20 2.52  39 2.52  83 2.53
                            26 2.55   4 2.55  56 2.56  38 2.59
   2  0.040  0.447  0.915-  65 2.47  77 2.48  96 2.49  75 2.50  53 2.53  57 2.54   5 2.55 107 2.56
                             6 2.56  42 2.58  39 2.59  20 2.60
   3  0.251  0.001  0.750-  71 2.49   1 2.50  24 2.51  56 2.51  60 2.52  68 2.52  69 2.52  67 2.53
                             4 2.53  55 2.54  58 2.55   9 2.58
   4  0.494  0.111  0.917- 100 2.50  48 2.51  11 2.52  62 2.52  37 2.52  69 2.53   3 2.53  49 2.55
                             1 2.55  56 2.55   9 2.58  38 2.58
   5  0.140  0.336  0.749-  86 2.48  63 2.49   6 2.51  61 2.52  57 2.52  12 2.53  32 2.53  75 2.54
                            55 2.54  56 2.55   2 2.55  20 2.56
   6  0.378  0.446  0.915-   5 2.51  57 2.52 102 2.52  13 2.52  12 2.54  65 2.54  56 2.54  39 2.55
                            42 2.55  49 2.56   2 2.56  52 2.57
   7  0.024  0.663  0.745-  87 2.46  64 2.48  90 2.49  78 2.50  86 2.51  67 2.51  57 2.53  77 2.53
                            66 2.54  58 2.55  25 2.58   8 2.60
   8  0.269  0.777  0.918-  57 2.49 102 2.50 105 2.51  98 2.51  96 2.52  37 2.53  25 2.53  14 2.53
                            66 2.53  58 2.54  69 2.56   7 2.60
   9  0.589  0.996  0.747-  91 2.46  79 2.49  71 2.51  72 2.51  80 2.51  62 2.51  24 2.52  69 2.53
                            11 2.56   3 2.58  60 2.58   4 2.58
  10  0.059  0.334  0.502-  61 2.49  86 2.50  64 2.50  73 2.50  74 2.51  63 2.52  43 2.55  32 2.55
                            33 2.55  17 2.57  40 2.58  41 2.59
  11  0.647  0.221  0.832-  65 2.51  56 2.51  72 2.51  60 2.52   4 2.52  75 2.52 107 2.52  62 2.53
                            12 2.54  49 2.55  20 2.55   9 2.56
  12  0.474  0.334  0.749-  63 2.49  18 2.50  75 2.51  65 2.52  56 2.52  21 2.52   5 2.53  60 2.53
                             6 2.54  61 2.54  13 2.54  11 2.54
  13  0.537  0.558  0.833-  63 2.49  54 2.50  66 2.51  57 2.52 102 2.52  78 2.52   6 2.52  77 2.53
                            12 2.54  14 2.54  21 2.55  65 2.58
  14  0.603  0.781  0.916- 100 2.47  80 2.49  69 2.50 108 2.51 105 2.52  25 2.52  66 2.53   8 2.53
                            78 2.53  13 2.54 102 2.55  54 2.59
  15  0.500  0.001  0.501-  72 2.51  60 2.51  36 2.51  18 2.52  91 2.52  59 2.53  89 2.53  16 2.54
                            24 2.55  27 2.55  28 2.56  47 2.56
  16  0.320  0.109  0.414-  89 2.49  81 2.49  70 2.50  17 2.51  59 2.52  40 2.52  61 2.54  73 2.54
                            15 2.54  28 2.55  18 2.56  29 2.56
  17  0.147  0.220  0.331-  82 2.49  70 2.51 101 2.51  50 2.51  16 2.51  29 2.51  30 2.53  41 2.55
                            40 2.55  73 2.56  74 2.56  10 2.57
  18  0.562  0.222  0.583-  12 2.50  73 2.50  60 2.51  61 2.51  15 2.52  32 2.52  75 2.53  28 2.53
                            21 2.53  72 2.54  33 2.54  16 2.56
  19  0.039  0.559  0.333-  34 2.51 103 2.52  85 2.52  31 2.53  51 2.54  23 2.55  44 2.55  74 2.56
                            43 2.57  50 2.57  22 2.58  46 2.61
  20  0.983  0.218  0.829-  55 2.47  71 2.48  72 2.50  56 2.52   1 2.52  62 2.52  75 2.53  39 2.53
                            11 2.55 107 2.56   5 2.56   2 2.60
  21  0.634  0.445  0.667-  77 2.49  33 2.49  86 2.50  76 2.51  87 2.51  78 2.52  12 2.52  75 2.52
                            18 2.53  63 2.54  73 2.54  13 2.55
  22  0.282  0.665  0.505-  79 2.48  76 2.48  64 2.48  67 2.50  74 2.50  88 2.51  24 2.54  46 2.54
                            34 2.55  19 2.58  36 2.59  23 2.67
  23  0.100  0.783  0.415-  59 2.46 106 2.47  99 2.49  89 2.50 103 2.51  68 2.53  85 2.53  24 2.54
                            19 2.55  36 2.57  46 2.60  22 2.67
  24  0.340  0.888  0.584-  67 2.50  68 2.50   3 2.51   9 2.52  59 2.53  60 2.54  91 2.54  23 2.54
                            22 2.54  36 2.54  79 2.54  15 2.55
  25  0.935  0.775  0.917-  77 2.50  54 2.51  98 2.51 108 2.52  96 2.52  14 2.52  78 2.53   8 2.53
                            80 2.54  58 2.54  26 2.56   7 2.58
  26  0.995  0.001  0.001- 101 2.49 100 2.49  83 2.49  80 2.49  62 2.51 108 2.51  98 2.52  82 2.53
                             1 2.55  58 2.56  25 2.56  37 2.58
  27  0.836  0.995  0.502-  68 2.47  99 2.48  91 2.48  59 2.50  55 2.51 106 2.52  72 2.52  47 2.54
                            15 2.55  40 2.56  32 2.58  28 2.63
  28  0.658  0.114  0.417-  40 2.51  32 2.52  41 2.52  33 2.52  92 2.53  81 2.53  18 2.53  29 2.53
                            47 2.54  16 2.55  15 2.56  27 2.63
  29  0.481  0.225  0.334-  94 2.49  84 2.51  30 2.51  17 2.51  41 2.52  73 2.52  33 2.53  28 2.53
                            82 2.54  81 2.54  93 2.55  16 2.56
  30  0.306  0.338  0.253-  74 2.50  31 2.50  95 2.50  84 2.50  94 2.51  29 2.51  34 2.51  38 2.52
                            50 2.52  17 2.53  83 2.56  82 2.57
  31  0.126  0.441  0.165-  53 2.47  30 2.50  83 2.51  50 2.51 107 2.52  19 2.53  95 2.53  42 2.54
                            51 2.54  39 2.54  34 2.57  85 2.60
  32  0.896  0.221  0.584-  72 2.50  75 2.50  55 2.50  86 2.51  28 2.52  18 2.52   5 2.53  61 2.54
                            33 2.55  10 2.55  40 2.56  27 2.58
  33  0.722  0.336  0.501-  21 2.49  86 2.51  87 2.51  43 2.51  84 2.52  28 2.52  73 2.52  29 2.53
                            18 2.54  32 2.55  10 2.55  41 2.56
  34  0.370  0.559  0.334-  36 2.50  19 2.51  95 2.51  30 2.51  97 2.52  44 2.52  85 2.52  88 2.54
                            84 2.55  22 2.55  74 2.56  31 2.57
  35  0.016  0.779  0.166- 108 2.50 104 2.50  70 2.51 103 2.51  85 2.52 106 2.52  96 2.53  89 2.54
                            98 2.54  54 2.54  45 2.56  53 2.59
  36  0.439  0.779  0.418-  91 2.48  34 2.50  97 2.51  15 2.51  99 2.52  88 2.53  24 2.54  85 2.55
                            89 2.55  47 2.56  23 2.57  22 2.59
  37  0.335  0.999  0.999- 105 2.50 100 2.50   1 2.52  93 2.52  98 2.52  69 2.52   4 2.52   8 2.53
                            58 2.53  38 2.55  82 2.55  26 2.58
  38  0.400  0.223  0.088-  94 2.47  93 2.49  82 2.50  30 2.52  83 2.52  95 2.53  37 2.55  48 2.56
                            39 2.57  49 2.57   4 2.58   1 2.59
  39  0.221  0.331  0.998-  56 2.52   1 2.52 107 2.52  49 2.53  20 2.53  83 2.54  31 2.54   6 2.55
                            42 2.55  38 2.57  95 2.57   2 2.59
  40  0.987  0.107  0.414- 106 2.48  92 2.49  28 2.51  70 2.51  59 2.52  16 2.52  17 2.55  61 2.55
                            32 2.56  27 2.56  41 2.56  10 2.58
  41  0.811  0.222  0.331-  50 2.49  93 2.50  94 2.51 101 2.51  92 2.51  28 2.52  29 2.52  17 2.55
                            43 2.55  33 2.56  40 2.56  10 2.59
  42  0.289  0.555  0.085-  95 2.50  52 2.50  85 2.51  97 2.52  96 2.53  31 2.54  53 2.54   6 2.55
                            45 2.55  39 2.55 102 2.56   2 2.58
  43  0.880  0.446  0.419-  87 2.50  64 2.51  33 2.51  74 2.52  44 2.53  84 2.53  50 2.55  10 2.55
                            94 2.55  41 2.55  46 2.56  19 2.57
  44  0.702  0.557  0.335-  99 2.50  34 2.52  84 2.52  95 2.52  94 2.52  88 2.52  51 2.52  43 2.53
                            97 2.53 103 2.55  19 2.55  46 2.60
  45  0.353  0.779  0.164-  96 2.50 102 2.50 105 2.50 104 2.51  98 2.52  81 2.53  85 2.54  47 2.54
                            97 2.54  89 2.55  42 2.55  35 2.56
  46  0.948  0.672  0.507-  68 2.46  67 2.47  90 2.47  87 2.49  64 2.52  88 2.52  99 2.53  22 2.54
                            43 2.56  44 2.60  23 2.60  19 2.61
  47  0.596  0.890  0.332- 106 2.47  92 2.49  97 2.51 104 2.52  81 2.53  45 2.54  28 2.54  27 2.54
                            89 2.55  99 2.56  36 2.56  15 2.56
  48  0.736  0.218  0.082- 101 2.49 100 2.49  83 2.49 107 2.51   4 2.51  93 2.52  50 2.52  62 2.52
                            51 2.54  38 2.56  49 2.57  94 2.60
  49  0.557  0.335  0.001-  65 2.49  51 2.50 107 2.52  52 2.53  39 2.53   4 2.55  11 2.55  95 2.55
                            56 2.55   6 2.56  48 2.57  38 2.57
  50  0.971  0.332  0.250-  41 2.49  17 2.51  31 2.51  51 2.52  30 2.52  48 2.52 101 2.54  74 2.54
                            83 2.54  43 2.55  94 2.55  19 2.57
  51  0.792  0.442  0.168-  94 2.48  49 2.50  95 2.51  53 2.51  50 2.52  44 2.52  31 2.54  48 2.54
                            52 2.54  19 2.54 107 2.58 103 2.58
  52  0.620  0.558  0.086- 103 2.50 104 2.50  97 2.50  42 2.50  95 2.52  54 2.53  49 2.53  53 2.53
                           102 2.54  51 2.54   6 2.57  65 2.58
  53  0.953  0.551  0.086-  31 2.47  51 2.51 103 2.52  85 2.52 107 2.52  52 2.53   2 2.53  42 2.54
                            65 2.55  54 2.56  96 2.59  35 2.59
  54  0.778  0.662  0.998-  13 2.50  77 2.51  65 2.51  25 2.51 102 2.53  52 2.53  96 2.53  35 2.54
                           104 2.54 108 2.56  53 2.56  14 2.59
  55  0.075  0.112  0.666-  20 2.47  61 2.50  32 2.50  27 2.51  60 2.51  56 2.52  59 2.52  71 2.53
                             3 2.54  72 2.54   5 2.54  68 2.55
  56  0.316  0.222  0.832-  60 2.50  11 2.51   3 2.51  20 2.52  55 2.52  39 2.52  12 2.52   6 2.54
                             5 2.55  49 2.55   4 2.55   1 2.56
  57  0.204  0.558  0.833-   8 2.49  66 2.50  63 2.51   6 2.52  13 2.52   5 2.52   7 2.53  96 2.53
                           102 2.53  77 2.53  86 2.54   2 2.54
  58  0.090  0.888  0.833-  80 2.49  90 2.50  67 2.51   1 2.52  71 2.52  37 2.53  25 2.54  69 2.54
                             8 2.54   7 2.55   3 2.55  26 2.56
  59  0.166  1.000  0.500-  23 2.46  27 2.50  55 2.52  16 2.52  40 2.52  60 2.52  61 2.53  15 2.53
                            24 2.53  89 2.53 106 2.53  68 2.55
  60  0.406  0.112  0.666-  56 2.50  55 2.51  18 2.51  15 2.51  11 2.52   3 2.52  61 2.52  59 2.52
                            72 2.53  12 2.53  24 2.54   9 2.58
  61  0.230  0.222  0.583-  10 2.49  55 2.50  73 2.51  18 2.51   5 2.52  60 2.52  59 2.53  12 2.54
                            32 2.54  16 2.54  63 2.54  40 2.55
  62  0.825  0.109  0.914-  80 2.50 107 2.50  26 2.51   1 2.51  71 2.51   9 2.51   4 2.52  48 2.52
                            20 2.52  11 2.53 100 2.54  83 2.54
  63  0.300  0.446  0.668-   5 2.49  12 2.49  13 2.49  57 2.51  76 2.51  64 2.52  66 2.52  10 2.52
                            73 2.53  86 2.54  21 2.54  61 2.54
  64  0.122  0.554  0.584-   7 2.48  22 2.48  10 2.50  74 2.50  43 2.51  86 2.52  63 2.52  66 2.52
                            46 2.52  87 2.53  76 2.53  67 2.55
  65  0.713  0.441  0.916-   2 2.47  49 2.49  11 2.51  54 2.51  75 2.52  12 2.52 107 2.53   6 2.54
                            53 2.55  77 2.56  13 2.58  52 2.58
  66  0.361  0.668  0.750-  79 2.50  57 2.50  67 2.51  13 2.51  69 2.51  64 2.52  63 2.52  14 2.53
                             8 2.53  78 2.54   7 2.54  76 2.54
  67  0.187  0.779  0.668-  46 2.47  69 2.49  24 2.50  22 2.50  66 2.51  68 2.51   7 2.51  58 2.51
                            79 2.52   3 2.53  90 2.54  64 2.55
  68  0.009  0.888  0.585-  46 2.46  27 2.47  71 2.49  24 2.50  67 2.51  90 2.51   3 2.52  99 2.53
                            23 2.53  91 2.54  59 2.55  55 2.55
  69  0.426  0.889  0.832-  67 2.49  14 2.50  79 2.50  66 2.51 100 2.52   3 2.52  37 2.52   4 2.53
                             9 2.53  80 2.54  58 2.54   8 2.56
  70  0.082  0.999  0.249-  16 2.50  35 2.51  17 2.51  40 2.51 101 2.51  89 2.52  98 2.52  82 2.52
                            81 2.52  92 2.52 106 2.52 108 2.53
  71  0.921  1.000  0.749-  20 2.48  68 2.49   3 2.49   1 2.50   9 2.51  62 2.51  58 2.52  90 2.52
                            55 2.53  72 2.53  91 2.55  80 2.55
  72  0.740  0.110  0.666-  20 2.50  32 2.50   9 2.51  15 2.51  11 2.51  75 2.52  27 2.52  91 2.53
                            60 2.53  71 2.53  55 2.54  18 2.54
  73  0.388  0.333  0.500-  10 2.50  18 2.50  61 2.51  76 2.52  29 2.52  33 2.52  74 2.53  63 2.53
                            84 2.53  16 2.54  21 2.54  17 2.56
  74  0.213  0.445  0.418-  64 2.50  30 2.50  22 2.50  10 2.51  76 2.52  84 2.52  43 2.52  73 2.53
                            50 2.54  34 2.56  17 2.56  19 2.56
  75  0.805  0.332  0.750-   2 2.50  32 2.50  12 2.51  65 2.52  11 2.52  72 2.52  21 2.52  18 2.53
                            86 2.53  20 2.53  77 2.53   5 2.54
  76  0.456  0.554  0.583-  22 2.48  84 2.49  21 2.51  87 2.51  63 2.51  73 2.52  74 2.52  78 2.52
                            88 2.52  79 2.53  64 2.53  66 2.54
  77  0.869  0.555  0.832-   2 2.48  21 2.49  25 2.50  54 2.51  78 2.52  86 2.53  13 2.53   7 2.53
                            75 2.53  57 2.53  65 2.56  96 2.56
  78  0.696  0.667  0.750-  90 2.50  79 2.50   7 2.50  77 2.52  13 2.52  87 2.52  76 2.52  21 2.52
                            80 2.52  25 2.53  14 2.53  66 2.54
  79  0.519  0.777  0.667-  22 2.48   9 2.49  66 2.50  78 2.50  69 2.50  88 2.51  90 2.52  67 2.52
                            91 2.53  76 2.53  24 2.54  80 2.54
  80  0.763  0.889  0.835-  14 2.49  58 2.49  26 2.49  62 2.50  90 2.51 100 2.51   9 2.51  78 2.52
                            25 2.54  69 2.54  79 2.54  71 2.55
  81  0.416  0.002  0.251-  16 2.49  89 2.51  82 2.51  93 2.52  70 2.52  28 2.53  92 2.53  45 2.53
                            47 2.53  98 2.54  29 2.54 105 2.55
  82  0.239  0.111  0.167-  17 2.49  83 2.50  38 2.50  98 2.51  81 2.51  70 2.52 101 2.52  26 2.53
                            29 2.54  93 2.54  37 2.55  30 2.57
  83  0.065  0.220  0.083-  26 2.49  48 2.49  82 2.50  31 2.51 107 2.52  38 2.52   1 2.53 101 2.53
                            50 2.54  62 2.54  39 2.54  30 2.56
  84  0.545  0.446  0.418-  76 2.49  30 2.50  29 2.51  94 2.52  33 2.52  87 2.52  44 2.52  74 2.52
                            88 2.52  43 2.53  73 2.53  34 2.55
  85  0.196  0.670  0.250-  89 2.50  42 2.51  19 2.52  35 2.52  97 2.52  53 2.52  34 2.52  23 2.53
                            45 2.54 103 2.54  36 2.55  31 2.60
  86  0.964  0.443  0.666-   5 2.48  10 2.50  21 2.50  33 2.51   7 2.51  32 2.51  64 2.52  77 2.53
                            75 2.53  57 2.54  63 2.54  87 2.54
  87  0.788  0.556  0.583-   7 2.46  46 2.49  43 2.50  88 2.50  33 2.51  21 2.51  76 2.51  84 2.52
                            78 2.52  90 2.52  64 2.53  86 2.54
  88  0.613  0.668  0.502-  91 2.50  87 2.50  79 2.51  90 2.51  22 2.51  76 2.52  84 2.52  44 2.52
                            46 2.52  36 2.53  99 2.53  34 2.54
  89  0.260  0.890  0.333-  16 2.49  23 2.50  85 2.50  81 2.51  70 2.52  59 2.53  15 2.53  35 2.54
                            45 2.55  47 2.55  36 2.55 106 2.56
  90  0.852  0.778  0.668-  46 2.47   7 2.49  78 2.50  58 2.50  80 2.51  88 2.51  68 2.51  79 2.52
                            71 2.52  87 2.52  91 2.53  67 2.54
  91  0.674  0.888  0.583-   9 2.46  27 2.48  36 2.48  88 2.50  15 2.52  72 2.53  79 2.53  90 2.53
                            99 2.53  68 2.54  24 2.54  71 2.55
  92  0.749  0.001  0.250-  40 2.49 101 2.49  47 2.49  93 2.51  41 2.51  70 2.52 106 2.52 105 2.53
                            28 2.53  81 2.53 108 2.53 104 2.54
  93  0.574  0.110  0.166-  38 2.49  41 2.50 105 2.50  92 2.51 101 2.51  48 2.52  37 2.52  81 2.52
                           100 2.53  82 2.54  29 2.55  94 2.55
  94  0.635  0.335  0.251-  38 2.47  51 2.48  29 2.49  30 2.51  95 2.51  41 2.51  84 2.52  44 2.52
                            43 2.55  50 2.55  93 2.55  48 2.60
  95  0.462  0.446  0.169-  42 2.50  30 2.50  51 2.51  94 2.51  34 2.51  44 2.52  52 2.52  38 2.53
                            31 2.53  97 2.54  49 2.55  39 2.57
  96  0.113  0.666  0.001-   2 2.49  45 2.50   8 2.52  25 2.52 102 2.52  54 2.53  57 2.53  42 2.53
                            35 2.53  98 2.55  77 2.56  53 2.59
  97  0.529  0.669  0.251-  52 2.50  47 2.51 103 2.51  99 2.51  36 2.51  34 2.52  85 2.52  42 2.52
                           104 2.53  44 2.53  95 2.54  45 2.54
  98  0.175  0.890  0.083-  82 2.51  25 2.51   8 2.51  45 2.52  70 2.52  26 2.52  37 2.52 108 2.53
                           105 2.54  81 2.54  35 2.54  96 2.55
  99  0.770  0.777  0.417-  27 2.48  23 2.49  44 2.50 103 2.51  97 2.51  36 2.52  88 2.53  68 2.53
                           106 2.53  46 2.53  91 2.53  47 2.56
 100  0.665  0.999  0.999-  14 2.47  26 2.49  48 2.49   4 2.50  37 2.50  80 2.51 105 2.51  69 2.52
                            93 2.53 101 2.53  62 2.54 108 2.54
 101  0.905  0.109  0.166-  26 2.49  48 2.49  92 2.49  93 2.51  41 2.51  17 2.51  70 2.51 108 2.52
                            82 2.52 100 2.53  83 2.53  50 2.54
 102  0.446  0.668  1.000-   8 2.50  45 2.50 104 2.50   6 2.52  13 2.52  96 2.52 105 2.53  54 2.53
                            57 2.53  52 2.54  14 2.55  42 2.56
 103  0.860  0.669  0.250-  52 2.50 106 2.50  99 2.51  23 2.51  97 2.51  35 2.51  19 2.52 104 2.52
                            53 2.52  85 2.54  44 2.55  51 2.58
 104  0.685  0.777  0.165-  52 2.50 108 2.50 102 2.50  35 2.50  45 2.51  47 2.52 103 2.52 106 2.53
                           105 2.53  97 2.53  54 2.54  92 2.54
 105  0.509  0.890  0.083-  45 2.50  93 2.50  37 2.50   8 2.51 100 2.51 108 2.51  14 2.52 102 2.53
                            92 2.53 104 2.53  98 2.54  81 2.55
 106  0.923  0.889  0.333-  47 2.47  23 2.47  40 2.48 103 2.50  27 2.52  35 2.52  92 2.52  70 2.52
                           104 2.53  99 2.53  59 2.53  89 2.56
 107  0.888  0.329  0.998-  62 2.50  48 2.51  31 2.52  11 2.52  49 2.52  83 2.52  53 2.52  39 2.52
                            65 2.53  20 2.56   2 2.56  51 2.58
 108  0.841  0.887  0.083- 104 2.50  35 2.50  14 2.51  26 2.51 105 2.51  25 2.52 101 2.52  98 2.53
                            70 2.53  92 2.53 100 2.54  54 2.56
 

IMPORTANT INFORMATION: All symmetrisations will be switched off!
NOSYMM: (Re-)initialisation of all symmetry stuff for point group C_1.

 
 

Automatic generation of k-mesh.
 generate k-points for:    3    2    2
Space group operators:
 irot       det(A)        alpha          n_x          n_y          n_z        tau_x        tau_y        tau_z
    1     1.000000     0.000001     1.000000     0.000000     0.000000     0.000000     0.000000     0.000000
 
 Subroutine IBZKPT returns following result:
 ===========================================
 
 Found      8 irreducible k-points:
 
 Following reciprocal coordinates:
            Coordinates               Weight
  0.000000  0.000000  0.000000      1.000000
  0.333333  0.000000  0.000000      2.000000
  0.000000  0.500000  0.000000      1.000000
  0.333333  0.500000  0.000000      2.000000
  0.000000  0.000000  0.500000      1.000000
  0.333333  0.000000  0.500000      2.000000
  0.000000  0.500000  0.500000      1.000000
  0.333333  0.500000  0.500000      2.000000
 
 Following cartesian coordinates:
            Coordinates               Weight
  0.000000 -0.000000  0.000000      1.000000
  0.132716 -0.027778 -0.089506      2.000000
  0.111111 -0.000000  0.111111      1.000000
  0.243827 -0.027778  0.021605      2.000000
  0.041667 -0.125000  0.041667      1.000000
  0.174383 -0.152778 -0.047840      2.000000
  0.152778 -0.125000  0.152778      1.000000
  0.285494 -0.152778  0.063272      2.000000
 
 TETIRR: Found     36 inequivalent tetrahedra from       72


--------------------------------------------------------------------------------------------------------




 Dimension of arrays:
   k-points           NKPTS =      8   k-points in BZ     NKDIM =      8   number of bands    NBANDS=    693
   number of dos      NEDOS =    301   number of ions     NIONS =    108
   non local maximal  LDIM  =      6   non local SUM 2l+1 LMDIM =     18
   total plane-waves  NPLWV = 580608
   max r-space proj   IRMAX =   7187   max aug-charges    IRDMAX=  17019
   dimension x,y,z NGX =    56 NGY =   96 NGZ =  108
   dimension x,y,z NGXF=   112 NGYF=  192 NGZF=  216
   support grid    NGXF=   112 NGYF=  192 NGZF=  216
   ions per type =              54  54
   NGX,Y,Z   is equivalent  to a cutoff of  12.29, 12.64, 12.38 a.u.
   NGXF,Y,Z  is equivalent  to a cutoff of  24.58, 25.28, 24.76 a.u.

 SYSTEM =  SQS-NiFe                                
 POSCAR =  POSCAR                                  

 Startparameter for this run:
   NWRITE =      2    write-flag & timer
   PREC   = accura    normal or accurate (medium, high low for compatibility)
   ISTART =      0    job   : 0-new  1-cont  2-samecut
   ICHARG =      2    charge: 1-file 2-atom 10-const
   ISPIN  =      2    spin polarized calculation?
   LNONCOLLINEAR =      F non collinear calculations
   LSORBIT =      F    spin-orbit coupling
   INIWAV =      1    electr: 0-lowe 1-rand  2-diag
   LASPH  =      F    aspherical Exc in radial PAW
   METAGGA=      F    non-selfconsistent MetaGGA calc.

 Electronic Relaxation 1
   ENCUT  =  520.0 eV  38.22 Ry    6.18 a.u.  14.08 23.47 26.97*2*pi/ulx,y,z
   ENINI  =  520.0     initial cutoff
   ENAUG  =  544.6 eV  augmentation charge cutoff
   NELM   =    200;   NELMIN=  2; NELMDL= -5     # of ELM steps 
   EDIFF  = 0.1E-05   stopping-criterion for ELM
   LREAL  =      T    real-space projection
   NLSPLINE    = F    spline interpolate recip. space projectors
   LCOMPAT=      F    compatible to vasp.4.4
   GGA_COMPAT  = T    GGA compatible to vasp.4.4-vasp.4.6
   LMAXPAW     = -100 max onsite density
   LMAXMIX     =    2 max onsite mixed and CHGCAR
   VOSKOWN=      0    Vosko Wilk Nusair interpolation
   ROPT   =   -0.00025  -0.00025
 Ionic relaxation
   EDIFFG = -.2E-01   stopping-criterion for IOM
   NSW    =      0    number of steps for IOM
   NBLOCK =      1;   KBLOCK =      1    inner block; outer block 
   IBRION =     -1    ionic relax: 0-MD 1-quasi-New 2-CG
   NFREE  =      0    steps in history (QN), initial steepest desc. (CG)
   ISIF   =      2    stress and relaxation
   IWAVPR =     10    prediction:  0-non 1-charg 2-wave 3-comb
   ISYM   =      0    0-nonsym 1-usesym 2-fastsym
   LCORR  =      T    Harris-Foulkes like correction to forces

   POTIM  = 0.5000    time-step for ionic-motion
   TEIN   =    0.0    initial temperature
   TEBEG  =    0.0;   TEEND  =   0.0 temperature during run
   SMASS  =  -3.00    Nose mass-parameter (am)
   estimated Nose-frequenzy (Omega)   =  0.10E-29 period in steps =****** mass=  -0.131E-26a.u.
   SCALEE = 1.0000    scale energy and forces
   NPACO  =    256;   APACO  = 16.0  distance and # of slots for P.C.
   PSTRESS=    0.0 pullay stress

  Mass of Ions in am
   POMASS =  55.85 58.69
  Ionic Valenz
   ZVAL   =   8.00 10.00
  Atomic Wigner-Seitz radii
   RWIGS  =  -1.00 -1.00
  virtual crystal weights 
   VCA    =   1.00  1.00
   NELECT =     972.0000    total number of electrons
   NUPDOWN=      -1.0000    fix difference up-down

 DOS related values:
   EMIN   =  10.00;   EMAX   =-10.00  energy-range for DOS
   EFERMI =   0.00
   ISMEAR =    -5;   SIGMA  =   0.20  broadening in eV -4-tet -1-fermi 0-gaus

 Electronic relaxation 2 (details)
   IALGO  =     68    algorithm
   LDIAG  =      T    sub-space diagonalisation (order eigenvalues)
   LSUBROT=      F    optimize rotation matrix (better conditioning)
   TURBO    =      0    0=normal 1=particle mesh
   IRESTART =      0    0=no restart 2=restart with 2 vectors
   NREBOOT  =      0    no. of reboots
   NMIN     =      0    reboot dimension
   EREF     =   0.00    reference energy to select bands
   IMIX   =      4    mixing-type and parameters
     AMIX     =   0.40;   BMIX     =  1.00
     AMIX_MAG =   1.60;   BMIX_MAG =  1.00
     AMIN     =   0.10
     WC   =   100.;   INIMIX=   1;  MIXPRE=   1;  MAXMIX= -45

 Intra band minimization:
   WEIMIN = 0.0000     energy-eigenvalue tresh-hold
   EBREAK =  0.36E-09  absolut break condition
   DEPER  =   0.30     relativ break condition  

   TIME   =   0.40     timestep for ELM

  volume/ion in A,a.u.               =      11.38        76.83
  Fermi-wavevector in a.u.,A,eV,Ry     =   1.513744  2.860562 31.176681  2.291421
  Thomas-Fermi vector in A             =   2.623494
 
 Write flags
   LWAVE        =      F    write WAVECAR
   LDOWNSAMPLE  =      F    k-point downsampling of WAVECAR
   LCHARG       =      T    write CHGCAR
   LVTOT        =      F    write LOCPOT, total local potential
   LVHAR        =      F    write LOCPOT, Hartree potential only
   LELF         =      F    write electronic localiz. function (ELF)
   LORBIT       =     11    0 simple, 1 ext, 2 COOP (PROOUT), +10 PAW based schemes


 Dipole corrections
   LMONO  =      F    monopole corrections only (constant potential shift)
   LDIPOL =      F    correct potential (dipole corrections)
   IDIPOL =      0    1-x, 2-y, 3-z, 4-all directions 
   EPSILON=  1.0000000 bulk dielectric constant

 Exchange correlation treatment:
   GGA     =    --    GGA type
   LEXCH   =     8    internal setting for exchange type
   VOSKOWN=      0    Vosko Wilk Nusair interpolation
   LHFCALC =     F    Hartree Fock is set to
   LHFONE  =     F    Hartree Fock one center treatment
   AEXX    =    0.0000 exact exchange contribution

 Linear response parameters
   LEPSILON=     F    determine dielectric tensor
   LRPA    =     F    only Hartree local field effects (RPA)
   LNABLA  =     F    use nabla operator in PAW spheres
   LVEL    =     F    velocity operator in full k-point grid
   LINTERFAST=   F  fast interpolation
   KINTER  =     0    interpolate to denser k-point grid
   CSHIFT  =0.1000    complex shift for real part using Kramers Kronig
   OMEGAMAX=  -1.0    maximum frequency
   DEG_THRESHOLD= 0.2000000E-02 threshold for treating states as degnerate
   RTIME   =   -0.100 relaxation time in fs
  (WPLASMAI=    0.000 imaginary part of plasma frequency in eV, 0.658/RTIME)
   DFIELD  = 0.0000000 0.0000000 0.0000000 field for delta impulse in time
 
 Orbital magnetization related:
   ORBITALMAG=     F  switch on orbital magnetization
   LCHIMAG   =     F  perturbation theory with respect to B field
   DQ        =  0.001000  dq finite difference perturbation B field
   LLRAUG    =     F  two centre corrections for induced B field



--------------------------------------------------------------------------------------------------------


 Static calculation
 charge density and potential will be updated during run
 spin polarized calculation
 RMM-DIIS sequential band-by-band and
  variant of blocked Davidson during initial phase
 perform sub-space diagonalisation
    before iterative eigenvector-optimisation
 modified Broyden-mixing scheme, WC =      100.0
 initial mixing is a Kerker type mixing with AMIX =  0.4000 and BMIX =      1.0000
 Hartree-type preconditioning will be used
 using additional bands          207
 real space projection scheme for non local part
 use partial core corrections
 calculate Harris-corrections to forces 
   (improved forces if not selfconsistent)
 use gradient corrections 
 use of overlap-Matrix (Vanderbilt PP)
 Fermi weights with tetrahedron method with Bloechl corrections


--------------------------------------------------------------------------------------------------------


  energy-cutoff  :      520.00
  volume of cell :     1229.51
      direct lattice vectors                 reciprocal lattice vectors
     5.356500000  0.000000000 -5.356500000     0.111494861 -0.023336134 -0.075194208
     7.142000000  5.356500000  8.927500000     0.062229690  0.000000000  0.062229690
    -1.785500000-14.284000000  1.785500000     0.023336134 -0.070008401  0.023336134

  length of vectors
     7.575234947 12.625391578 14.505470571     0.136491202  0.088006071  0.077397199


 
 k-points in units of 2pi/SCALE and weight: read from INCAR                         
   0.00000000 -0.00000000  0.00000000       0.083
   0.13271605 -0.02777778 -0.08950617       0.167
   0.11111111 -0.00000000  0.11111111       0.083
   0.24382716 -0.02777778  0.02160494       0.167
   0.04166667 -0.12500000  0.04166667       0.083
   0.17438272 -0.15277778 -0.04783951       0.167
   0.15277778 -0.12500000  0.15277778       0.083
   0.28549383 -0.15277778  0.06327160       0.167
 
 k-points in reciprocal lattice and weights: read from INCAR                         
   0.00000000  0.00000000  0.00000000       0.083
   0.33333333  0.00000000  0.00000000       0.167
   0.00000000  0.50000000  0.00000000       0.083
   0.33333333  0.50000000  0.00000000       0.167
   0.00000000  0.00000000  0.50000000       0.083
   0.33333333  0.00000000  0.50000000       0.167
   0.00000000  0.50000000  0.50000000       0.083
   0.33333333  0.50000000  0.50000000       0.167
 
 position of ions in fractional coordinates (direct lattice) 
   0.15688982  0.10896160  0.91556871
   0.03989950  0.44709447  0.91535776
   0.25079828  0.00130206  0.75049253
   0.49391920  0.11100220  0.91686353
   0.14027589  0.33609597  0.74870406
   0.37823173  0.44631602  0.91548926
   0.02390918  0.66347346  0.74487150
   0.26908977  0.77701099  0.91798238
   0.58885793  0.99593670  0.74725960
   0.05904514  0.33423275  0.50190424
   0.64720287  0.22079165  0.83192900
   0.47351672  0.33446633  0.74897052
   0.53669678  0.55788321  0.83303654
   0.60303947  0.78138523  0.91628260
   0.49987361  0.00050028  0.50083097
   0.31990548  0.10890004  0.41429163
   0.14700437  0.21995202  0.33077623
   0.56228814  0.22249044  0.58340024
   0.03861266  0.55870662  0.33265881
   0.98294118  0.21796275  0.82940564
   0.63438062  0.44530461  0.66664124
   0.28153960  0.66521051  0.50505294
   0.09960192  0.78287635  0.41546831
   0.33976161  0.88842563  0.58437838
   0.93490270  0.77521668  0.91748424
   0.99461396  0.00080723  0.00132848
   0.83601927  0.99460595  0.50184526
   0.65798607  0.11389016  0.41674194
   0.48071731  0.22536810  0.33357047
   0.30573076  0.33765131  0.25300312
   0.12552442  0.44079610  0.16520269
   0.89565869  0.22136381  0.58417501
   0.72193178  0.33555017  0.50090215
   0.37004144  0.55887758  0.33413938
   0.01572014  0.77863681  0.16642706
   0.43908897  0.77920758  0.41832650
   0.33476663  0.99927856  0.99907934
   0.40020929  0.22330239  0.08805685
   0.22147611  0.33109291  0.99763427
   0.98676089  0.10736955  0.41433073
   0.81132829  0.22203778  0.33053586
   0.28870780  0.55511314  0.08546270
   0.88006893  0.44640691  0.41869610
   0.70219679  0.55666483  0.33478567
   0.35345679  0.77908956  0.16430345
   0.94812252  0.67153555  0.50716474
   0.59632951  0.89015697  0.33184369
   0.73567906  0.21840157  0.08219093
   0.55742243  0.33504676  0.00084421
   0.97120567  0.33230595  0.25042455
   0.79155107  0.44175811  0.16795390
   0.62006356  0.55755742  0.08647325
   0.95286961  0.55090033  0.08585462
   0.77776369  0.66207223  0.99795664
   0.07516235  0.11237453  0.66584586
   0.31638930  0.22241034  0.83152938
   0.20445063  0.55790023  0.83279036
   0.09040468  0.88751767  0.83296550
   0.16569396  0.99959730  0.49958342
   0.40613260  0.11153338  0.66618287
   0.22993555  0.22188490  0.58253333
   0.82504911  0.10906786  0.91420270
   0.29972070  0.44573231  0.66838644
   0.12165446  0.55414994  0.58372555
   0.71269128  0.44135523  0.91590061
   0.36126166  0.66771184  0.75006788
   0.18714876  0.77899895  0.66825258
   0.00945938  0.88767062  0.58483769
   0.42614246  0.88866202  0.83204430
   0.08184207  0.99927610  0.24913618
   0.92092434  0.99998586  0.74938757
   0.74022689  0.11035020  0.66616182
   0.38820056  0.33254695  0.50047291
   0.21284262  0.44508151  0.41831699
   0.80527507  0.33208928  0.74963029
   0.45597021  0.55394345  0.58331999
   0.86921979  0.55495082  0.83157251
   0.69577329  0.66726217  0.74951365
   0.51892776  0.77680177  0.66749633
   0.76279681  0.88923575  0.83467029
   0.41550901  0.00194356  0.25050269
   0.23875324  0.11107862  0.16662460
   0.06522508  0.22000065  0.08303127
   0.54546511  0.44588219  0.41799809
   0.19584951  0.66973555  0.24980881
   0.96351621  0.44265562  0.66572155
   0.78796549  0.55636355  0.58314784
   0.61280527  0.66786626  0.50236859
   0.26039931  0.89002034  0.33264695
   0.85164874  0.77846569  0.66837997
   0.67416099  0.88801561  0.58315388
   0.74944903  0.00126143  0.24975417
   0.57415031  0.11012058  0.16577027
   0.63542827  0.33485399  0.25128943
   0.46169143  0.44551073  0.16867461
   0.11310118  0.66588472  0.00094107
   0.52891721  0.66924971  0.25142107
   0.17465106  0.88991225  0.08267967
   0.77041136  0.77668165  0.41702933
   0.66516961  0.99914656  0.99851307
   0.90517107  0.10912827  0.16615214
   0.44583976  0.66778065  0.99994100
   0.86015930  0.66884191  0.25035284
   0.68465946  0.77741144  0.16495231
   0.50948279  0.89007180  0.08267249
   0.92297747  0.88925046  0.33277292
   0.88804727  0.32894664  0.99819569
   0.84090356  0.88748469  0.08262225
 
 position of ions in cartesian coordinates  (Angst):
  -0.01616390-12.49433070  1.76712231
   1.77249908-10.68010876  5.41208542
   0.01269592-10.71306085  0.00822759
   1.80139606-12.50189540 -0.01764622
   1.81497410 -8.89419077  3.58592008
   3.57898118-10.68615681  3.59309405
   3.53662890 -7.08584897  7.12505782
   5.35173429 -8.95040103  7.13444377
   8.93296535 -5.33912119  7.07123938
   1.80721561 -5.37888240  3.56373762
   3.55822688-10.70060338 -0.01021554
   3.58786398 -8.90672596  1.78684267
   5.37183148 -8.91079246  3.59307282
   7.17481165 -8.90269060  5.38165833
   1.78691224 -7.15118986 -1.77887306
   1.75162005 -5.33441853 -0.00165092
   1.76772532 -3.54663470  1.76679372
   3.55926203 -7.14151902  0.01604817
   3.60314905 -1.75898645  5.37498694
   5.34091061-10.67971265 -1.83835823
   5.38813740 -7.13702934  1.76768501
   5.35722836 -3.65097602  5.33237198
   5.38300192 -1.74107219  7.19742966
   7.12166133 -3.58840893  7.15489440
   8.90623569 -8.95289673  3.55110870
   5.33104288 -0.01465207 -5.31807113
  10.68556815 -1.84075102  5.29725210
   3.59381317 -5.34268916 -1.76365523
   3.58895114 -3.55753645  0.03260149
   3.59741541 -1.80526727  1.82847229
   3.52556791  0.00136916  3.55780506
   5.33553163 -7.15862061 -1.77832584
   5.36916607 -5.35751188  0.02295738
   5.37702483 -1.77921909  3.60385850
   5.34807349  1.79352387  7.16423068
   7.17015864 -1.80155026  5.35131757
   7.14616879 -8.91821362  8.91173807
   3.58132122 -0.06168481  0.00703650
   1.76972637-12.47670874  3.55077118
   5.31263050 -5.34317518 -3.58725552
   5.34150200 -3.53202882 -1.77346595
   5.35848775  1.75271428  3.56190291
   7.15474547 -3.58947646  0.01879032
   7.13925752 -1.80030334  1.80606804
   7.16418508  1.82628268  5.35539454
   8.96918258 -3.64726096  1.82205800
   8.95923318  0.02807049  5.34514419
   5.35373696 -0.00414729 -1.84413294
   5.37722991  1.78261930  0.00680403
   7.12845921 -1.79706750 -1.78846880
   7.09509802 -0.03277614  0.00373389
   7.14904756  1.75137243  1.81062139
   8.88528281  1.72455023 -0.03258994
   7.11275952-10.70842274  3.52641025
   0.01631823 -8.90900808  1.78948429
   1.79849825-10.68622465  1.77552478
   3.59271602 -8.90718497  5.37246168
   5.33564402 -7.14409073  8.92632123
   7.13465742 -1.78170657  8.92837138
   1.78255117 -8.91832760  0.00973449
   1.77623846 -7.13237960  1.78934094
   3.56602930-12.47424935 -1.81336329
   3.59547009 -7.15966673  3.56722527
   3.56713902 -5.36963160  5.33777344
   5.33434940-10.71860506  1.75800854
   5.36464985 -7.13737107  5.36514558
   5.37290787 -5.37261201  7.14521577
   5.34618504 -3.59901397  8.91823797
   7.14384114 -7.12480263  7.13651323
   7.13038429  1.79396120  8.92748296
  10.73679876 -5.34782774  5.33247403
   3.56371451 -8.92436463 -1.79044200
   3.56085225 -5.36746731  1.78301096
   3.57195865 -3.59116079  3.58027864
   5.34677263 -8.92888282 -0.01026402
   5.35715074 -5.36494461  3.54444356
   7.13466182 -8.90558773  1.78312032
   7.15423946 -7.13186311  3.56833003
   7.13574010 -5.37357889  5.34707602
   8.94653907 -7.15923915  5.34303488
   1.79228239 -3.56776977 -1.76105031
   1.77469697 -1.78507325  0.01028085
   1.77237046 -0.00758522  1.76293004
   5.35993889 -3.58231676  1.80516499
   5.38628558  0.01916951  5.37602989
   7.13387515 -7.13808182 -0.02062071
   7.15307514 -5.34952236  1.78740889
   7.15541312 -3.59840741  3.57686367
   7.15741301  0.01586488  7.14476879
   8.92826602 -5.37728799  3.58128841
   8.91212960 -3.57311439  5.35783730
   3.57749678 -3.56073171 -3.55722622
   3.56593452 -1.77800165 -1.79635180
   5.34652147 -1.79577280  0.03441473
   5.35371927 -0.02296987  1.80541541
   5.35989490  3.55336925  5.34053968
   7.16401418 -0.00646248  3.59049411
   7.14364710  3.58581850  7.15679776
   8.92916293 -1.79655173  3.55172286
   8.91604068 -8.91083220  7.13974501
   5.33127829 -1.78877155 -3.57764157
   5.37203543-10.70619018  5.35886576
   8.93730723  0.00661179  1.81064785
   8.92512854  1.80802550  3.56748453
   8.93832559  3.58677574  5.36468313
  10.70078958  0.00994171  3.58902075
   5.32388372-12.49622450 -0.03787565
  10.69519353  3.57363553  3.56624168
 


--------------------------------------------------------------------------------------------------------


 k-point  1 :   0.0000 0.0000 0.0000  plane waves:   33103
 k-point  2 :   0.3333 0.0000 0.0000  plane waves:   33119
 k-point  3 :   0.0000 0.5000 0.0000  plane waves:   33044
 k-point  4 :   0.3333 0.5000 0.0000  plane waves:   33070
 k-point  5 :   0.0000 0.0000 0.5000  plane waves:   33110
 k-point  6 :   0.3333 0.0000 0.5000  plane waves:   33140
 k-point  7 :   0.0000 0.5000 0.5000  plane waves:   33082
 k-point  8 :   0.3333 0.5000 0.5000  plane waves:   33122

 maximum and minimum number of plane-waves per node :      1065     1011

 maximum number of plane-waves:     33140
 maximum index in each direction: 
   IXMAX=   14   IYMAX=   23   IZMAX=   26
   IXMIN=  -14   IYMIN=  -23   IZMIN=  -27


 real space projection operators:
  total allocation   :      96598.27 KBytes
  max/ min on nodes  :       3461.48       1727.30


 parallel 3D FFT for wavefunctions:
    minimum data exchange during FFTs selected (reduces bandwidth)
 parallel 3D FFT for charge:
    minimum data exchange during FFTs selected (reduces bandwidth)


 total amount of memory used by VASP MPI-rank0   126093. kBytes
=======================================================================

   base      :      30000. kBytes
   nonlr-proj:      17419. kBytes
   fftplans  :       3141. kBytes
   grid      :       8349. kBytes
   one-center:        124. kBytes
   wavefun   :      67060. kBytes
 
     INWAV:  cpu time    0.0010: real time    0.0001
 Broyden mixing: mesh for mixing (old mesh)
   NGX = 29   NGY = 47   NGZ = 53
  (NGX  =112   NGY  =192   NGZ  =216)
  gives a total of  72239 points

 initial charge density was supplied:
 charge density of overlapping atoms calculated
 number of electron     972.0000000 magnetization     216.0000000
 keeping initial charge density in first step


--------------------------------------------------------------------------------------------------------


 Maximum index for non-local projection operator          450
 Maximum index for augmentation-charges         1155 (set IRDMAX)


--------------------------------------------------------------------------------------------------------


 First call to EWALD:  gamma=   0.165
 Maximum number of real-space cells 4x 3x 2
 Maximum number of reciprocal cells 2x 3x 4

    FEWALD:  cpu time    0.0060: real time    0.0048


--------------------------------------- Iteration      1(   1)  ---------------------------------------


    POTLOK:  cpu time    0.1120: real time    0.1159
    SETDIJ:  cpu time    0.0260: real time    0.0284
     EDDAV:  cpu time   49.3435: real time   49.5550
 BZINTS: Fermi energy: 24.654282;972.000000 electrons
         Band energy:***********;  BLOECHL correction: -0.011901
       DOS:  cpu time    0.1120: real time    0.1118
    --------------------------------------------
      LOOP:  cpu time   49.5935: real time   49.8112

 eigenvalue-minimisations  : 22176
 total energy-change (2. order) : 0.9022463E+04  (-0.3827427E+05)
 number of electron     972.0000000 magnetization     216.0000000
 augmentation part      972.0000000 magnetization     216.0000000

 Free energy of the ion-electron system (eV)
  ---------------------------------------------------
  alpha Z        PSCENC =      5865.25579871
  Ewald energy   TEWEN  =    -80857.41610069
  -Hartree energ DENC   =    -20664.69982583
  -exchange      EXHF   =         0.00000000
  -V(xc)+E(xc)   XCENC  =      1981.32591320
  PAW double counting   =     81895.99178470   -85922.42396668
  entropy T*S    EENTRO =         0.00000000
  eigenvalues    EBANDS =     16437.31511139
  atomic energy  EATOM  =     90287.11440572
  Solvation  Ediel_sol  =         0.00000000
  ---------------------------------------------------
  free energy    TOTEN  =      9022.46312052 eV

  energy without entropy =     9022.46312052  energy(sigma->0) =     9022.46312052


--------------------------------------------------------------------------------------------------------




--------------------------------------- Iteration      1(   2)  ---------------------------------------


     EDDAV:  cpu time   48.8236: real time   48.9938
 BZINTS: Fermi energy: 11.919022;972.000000 electrons
         Band energy:7933.686640;  BLOECHL correction: -0.008431
       DOS:  cpu time    0.1040: real time    0.1038
    --------------------------------------------
      LOOP:  cpu time   48.9276: real time   49.0976

 eigenvalue-minimisations  : 22176
 total energy-change (2. order) :-0.8503628E+04  (-0.7982463E+04)
 number of electron     972.0000000 magnetization     216.0000000
 augmentation part      972.0000000 magnetization     216.0000000

 Free energy of the ion-electron system (eV)
  ---------------------------------------------------
  alpha Z        PSCENC =      5865.25579871
  Ewald energy   TEWEN  =    -80857.41610069
  -Hartree energ DENC   =    -20664.69982583
  -exchange      EXHF   =         0.00000000
  -V(xc)+E(xc)   XCENC  =      1981.32591320
  PAW double counting   =     81895.99178470   -85922.42396668
  entropy T*S    EENTRO =         0.00000000
  eigenvalues    EBANDS =      7933.68664021
  atomic energy  EATOM  =     90287.11440572
  Solvation  Ediel_sol  =         0.00000000
  ---------------------------------------------------
  free energy    TOTEN  =       518.83464934 eV

  energy without entropy =      518.83464934  energy(sigma->0) =      518.83464934


--------------------------------------------------------------------------------------------------------




--------------------------------------- Iteration      1(   3)  ---------------------------------------


     EDDAV:  cpu time   48.8296: real time   49.0012
 BZINTS: Fermi energy:  9.671856;972.000000 electrons
         Band energy:6657.551929;  BLOECHL correction: -0.103381
       DOS:  cpu time    0.1130: real time    0.1126
    --------------------------------------------
      LOOP:  cpu time   48.9426: real time   49.1137

 eigenvalue-minimisations  : 22176
 total energy-change (2. order) :-0.1276135E+04  (-0.1012281E+04)
 number of electron     972.0000000 magnetization     216.0000000
 augmentation part      972.0000000 magnetization     216.0000000

 Free energy of the ion-electron system (eV)
  ---------------------------------------------------
  alpha Z        PSCENC =      5865.25579871
  Ewald energy   TEWEN  =    -80857.41610069
  -Hartree energ DENC   =    -20664.69982583
  -exchange      EXHF   =         0.00000000
  -V(xc)+E(xc)   XCENC  =      1981.32591320
  PAW double counting   =     81895.99178470   -85922.42396668
  entropy T*S    EENTRO =         0.00000000
  eigenvalues    EBANDS =      6657.55192894
  atomic energy  EATOM  =     90287.11440572
  Solvation  Ediel_sol  =         0.00000000
  ---------------------------------------------------
  free energy    TOTEN  =      -757.30006193 eV

  energy without entropy =     -757.30006193  energy(sigma->0) =     -757.30006193


--------------------------------------------------------------------------------------------------------




--------------------------------------- Iteration      1(   4)  ---------------------------------------


     EDDAV:  cpu time   50.6563: real time   50.8365
 BZINTS: Fermi energy:  9.566217;972.000000 electrons
         Band energy:6567.493845;  BLOECHL correction: -0.134615
       DOS:  cpu time    0.1070: real time    0.1073
    --------------------------------------------
      LOOP:  cpu time   50.7633: real time   50.9438

 eigenvalue-minimisations  : 23463
 total energy-change (2. order) :-0.9005808E+02  (-0.8448865E+02)
 number of electron     972.0000000 magnetization     216.0000000
 augmentation part      972.0000000 magnetization     216.0000000

 Free energy of the ion-electron system (eV)
  ---------------------------------------------------
  alpha Z        PSCENC =      5865.25579871
  Ewald energy   TEWEN  =    -80857.41610069
  -Hartree energ DENC   =    -20664.69982583
  -exchange      EXHF   =         0.00000000
  -V(xc)+E(xc)   XCENC  =      1981.32591320
  PAW double counting   =     81895.99178470   -85922.42396668
  entropy T*S    EENTRO =         0.00000000
  eigenvalues    EBANDS =      6567.49384489
  atomic energy  EATOM  =     90287.11440572
  Solvation  Ediel_sol  =         0.00000000
  ---------------------------------------------------
  free energy    TOTEN  =      -847.35814599 eV

  energy without entropy =     -847.35814599  energy(sigma->0) =     -847.35814599


--------------------------------------------------------------------------------------------------------




--------------------------------------- Iteration      1(   5)  ---------------------------------------


     EDDAV:  cpu time   51.7581: real time   51.9316
 BZINTS: Fermi energy:  9.564600;972.000000 electrons
         Band energy:6566.060776;  BLOECHL correction: -0.135306
       DOS:  cpu time    0.1070: real time    0.1073
    CHARGE:  cpu time    0.8639: real time    0.8669
    MIXING:  cpu time    0.0020: real time    0.0021
    --------------------------------------------
      LOOP:  cpu time   52.7310: real time   52.9080

 eigenvalue-minimisations  : 24021
 total energy-change (2. order) :-0.1433069E+01  (-0.1426961E+01)
 number of electron     972.0000056 magnetization     201.4553546
 augmentation part      497.3885858 magnetization     159.0000824

 Broyden mixing:
  rms(total) = 0.10921E+02    rms(broyden)= 0.10921E+02
  rms(prec ) = 0.12141E+02
  weight for this iteration     100.00

 Free energy of the ion-electron system (eV)
  ---------------------------------------------------
  alpha Z        PSCENC =      5865.25579871
  Ewald energy   TEWEN  =    -80857.41610069
  -Hartree energ DENC   =    -20664.69982583
  -exchange      EXHF   =         0.00000000
  -V(xc)+E(xc)   XCENC  =      1981.32591320
  PAW double counting   =     81895.99178470   -85922.42396668
  entropy T*S    EENTRO =         0.00000000
  eigenvalues    EBANDS =      6566.06077557
  atomic energy  EATOM  =     90287.11440572
  Solvation  Ediel_sol  =         0.00000000
  ---------------------------------------------------
  free energy    TOTEN  =      -848.79121530 eV

  energy without entropy =     -848.79121530  energy(sigma->0) =     -848.79121530


--------------------------------------------------------------------------------------------------------




--------------------------------------- Iteration      1(   6)  ---------------------------------------


    POTLOK:  cpu time    0.1090: real time    0.1093
    SETDIJ:  cpu time    0.0270: real time    0.0268
    EDDIAG:  cpu time    7.9388: real time    7.9657
  RMM-DIIS:  cpu time   23.3794: real time   23.5304
    ORTHCH:  cpu time    2.9995: real time    3.0074
 BZINTS: Fermi energy:  6.838864;972.000000 electrons
         Band energy:4056.351021;  BLOECHL correction: -0.049704
       DOS:  cpu time    0.1210: real time    0.1215
    CHARGE:  cpu time    0.8399: real time    0.8430
    MIXING:  cpu time    0.0030: real time    0.0022
    --------------------------------------------
      LOOP:  cpu time   35.4176: real time   35.6062

 eigenvalue-minimisations  : 23240
 total energy-change (2. order) : 0.3587526E+02  (-0.1039368E+03)
 number of electron     972.0000071 magnetization     195.4369076
 augmentation part      585.7971092 magnetization     160.3343764

 Broyden mixing:
  rms(total) = 0.12566E+02    rms(broyden)= 0.12566E+02
  rms(prec ) = 0.17208E+02
  weight for this iteration     100.00

 eigenvalues of (default mixing * dielectric matrix)
  average eigenvalue GAMMA=   0.3710
  0.3710

 Free energy of the ion-electron system (eV)
  ---------------------------------------------------
  alpha Z        PSCENC =      5865.25579871
  Ewald energy   TEWEN  =    -80857.41610069
  -Hartree energ DENC   =    -18374.99881960
  -exchange      EXHF   =         0.00000000
  -V(xc)+E(xc)   XCENC  =      1867.88833955
  PAW double counting   =     87944.58678925   -91601.69739383
  entropy T*S    EENTRO =         0.00000000
  eigenvalues    EBANDS =      4056.35102069
  atomic energy  EATOM  =     90287.11440572
  Solvation  Ediel_sol  =         0.00000000
  ---------------------------------------------------
  free energy    TOTEN  =      -812.91596019 eV

  energy without entropy =     -812.91596019  energy(sigma->0) =     -812.91596019


--------------------------------------------------------------------------------------------------------




--------------------------------------- Iteration      1(   7)  ---------------------------------------


    POTLOK:  cpu time    0.1550: real time    0.1555
    SETDIJ:  cpu time    0.0270: real time    0.0261
    EDDIAG:  cpu time    7.8038: real time    7.8334
  RMM-DIIS:  cpu time   23.2305: real time   23.3293
    ORTHCH:  cpu time    3.0325: real time    3.0445
 BZINTS: Fermi energy:  7.640417;972.000000 electrons
         Band energy:4511.510739;  BLOECHL correction: -0.007852
       DOS:  cpu time    0.1230: real time    0.1223
    CHARGE:  cpu time    0.8699: real time    0.8734
    MIXING:  cpu time    0.0020: real time    0.0023
    --------------------------------------------
      LOOP:  cpu time   35.2436: real time   35.3868

 eigenvalue-minimisations  : 24057
 total energy-change (2. order) :-0.2115285E+03  (-0.3019287E+02)
 number of electron     972.0000054 magnetization     186.3975647
 augmentation part      560.2740476 magnetization     163.6878138

 Broyden mixing:
  rms(total) = 0.22879E+02    rms(broyden)= 0.22879E+02
  rms(prec ) = 0.35870E+02
  weight for this iteration     100.00

 eigenvalues of (default mixing * dielectric matrix)
  average eigenvalue GAMMA=   0.3129
  0.5128  0.1130

 Free energy of the ion-electron system (eV)
  ---------------------------------------------------
  alpha Z        PSCENC =      5865.25579871
  Ewald energy   TEWEN  =    -80857.41610069
  -Hartree energ DENC   =    -18856.34278401
  -exchange      EXHF   =         0.00000000
  -V(xc)+E(xc)   XCENC  =      1889.27564651
  PAW double counting   =     90335.36104752   -94199.20320494
  entropy T*S    EENTRO =         0.00000000
  eigenvalues    EBANDS =      4511.51073911
  atomic energy  EATOM  =     90287.11440572
  Solvation  Ediel_sol  =         0.00000000
  ---------------------------------------------------
  free energy    TOTEN  =     -1024.44445207 eV

  energy without entropy =    -1024.44445207  energy(sigma->0) =    -1024.44445207


--------------------------------------------------------------------------------------------------------




--------------------------------------- Iteration      1(   8)  ---------------------------------------


    POTLOK:  cpu time    0.1110: real time    0.1105
    SETDIJ:  cpu time    0.0270: real time    0.0262
    EDDIAG:  cpu time    7.9618: real time    7.9841
  RMM-DIIS:  cpu time   22.8285: real time   22.9348
    ORTHCH:  cpu time    2.9995: real time    3.0103
 BZINTS: Fermi energy:  7.777943;972.000000 electrons
         Band energy:4863.524265;  BLOECHL correction: -0.017044
       DOS:  cpu time    0.1140: real time    0.1137
    CHARGE:  cpu time    0.8199: real time    0.8226
    MIXING:  cpu time    0.0030: real time    0.0024
    --------------------------------------------
      LOOP:  cpu time   34.8647: real time   35.0046

 eigenvalue-minimisations  : 23819
 total energy-change (2. order) : 0.1622640E+03  (-0.9842742E+01)
 number of electron     972.0000051 magnetization     182.6294292
 augmentation part      551.6391069 magnetization     151.2060472

 Broyden mixing:
  rms(total) = 0.15797E+02    rms(broyden)= 0.15796E+02
  rms(prec ) = 0.21740E+02
  weight for this iteration     100.00

 eigenvalues of (default mixing * dielectric matrix)
  average eigenvalue GAMMA=   0.2792
  0.5353  0.1883  0.1141

 Free energy of the ion-electron system (eV)
  ---------------------------------------------------
  alpha Z        PSCENC =      5865.25579871
  Ewald energy   TEWEN  =    -80857.41610069
  -Hartree energ DENC   =    -18927.03764601
  -exchange      EXHF   =         0.00000000
  -V(xc)+E(xc)   XCENC  =      1884.73446754
  PAW double counting   =     92359.18677380   -96337.54237349
  entropy T*S    EENTRO =         0.00000000
  eigenvalues    EBANDS =      4863.52426514
  atomic energy  EATOM  =     90287.11440572
  Solvation  Ediel_sol  =         0.00000000
  ---------------------------------------------------
  free energy    TOTEN  =      -862.18040929 eV

  energy without entropy =     -862.18040929  energy(sigma->0) =     -862.18040929


--------------------------------------------------------------------------------------------------------




--------------------------------------- Iteration      1(   9)  ---------------------------------------


    POTLOK:  cpu time    0.1150: real time    0.1159
    SETDIJ:  cpu time    0.0270: real time    0.0263
    EDDIAG:  cpu time    7.8808: real time    7.9019
  RMM-DIIS:  cpu time   22.7175: real time   22.8126
    ORTHCH:  cpu time    3.0105: real time    3.0208
 BZINTS: Fermi energy:  7.558426;972.000000 electrons
         Band energy:4919.997619;  BLOECHL correction: -0.091773
       DOS:  cpu time    0.1240: real time    0.1240
    CHARGE:  cpu time    0.8379: real time    0.8409
    MIXING:  cpu time    0.0030: real time    0.0024
    --------------------------------------------
      LOOP:  cpu time   34.7157: real time   34.8447

 eigenvalue-minimisations  : 23610
 total energy-change (2. order) : 0.1010038E+03  (-0.8251389E+01)
 number of electron     972.0000067 magnetization     179.4878681
 augmentation part      557.2043168 magnetization     141.1398978

 Broyden mixing:
  rms(total) = 0.78301E+01    rms(broyden)= 0.78297E+01
  rms(prec ) = 0.11411E+02
  weight for this iteration     100.00

 eigenvalues of (default mixing * dielectric matrix)
  average eigenvalue GAMMA=   0.3330
  0.5573  0.5573  0.1202  0.0969

 Free energy of the ion-electron system (eV)
  ---------------------------------------------------
  alpha Z        PSCENC =      5865.25579871
  Ewald energy   TEWEN  =    -80857.41610069
  -Hartree energ DENC   =    -18859.64079035
  -exchange      EXHF   =         0.00000000
  -V(xc)+E(xc)   XCENC  =      1880.74038135
  PAW double counting   =     93032.73617777   -97029.96414529
  entropy T*S    EENTRO =         0.00000000
  eigenvalues    EBANDS =      4919.99761903
  atomic energy  EATOM  =     90287.11440572
  Solvation  Ediel_sol  =         0.00000000
  ---------------------------------------------------
  free energy    TOTEN  =      -761.17665374 eV

  energy without entropy =     -761.17665374  energy(sigma->0) =     -761.17665374


--------------------------------------------------------------------------------------------------------




--------------------------------------- Iteration      1(  10)  ---------------------------------------


    POTLOK:  cpu time    0.1090: real time    0.1101
    SETDIJ:  cpu time    0.0270: real time    0.0262
    EDDIAG:  cpu time    7.9648: real time    7.9875
  RMM-DIIS:  cpu time   23.0015: real time   23.1032
    ORTHCH:  cpu time    2.9835: real time    2.9943
 BZINTS: Fermi energy:  7.651746;972.000000 electrons
         Band energy:4974.767223;  BLOECHL correction: -0.030128
       DOS:  cpu time    0.1140: real time    0.1140
    CHARGE:  cpu time    0.8639: real time    0.8667
    MIXING:  cpu time    0.0030: real time    0.0028
    --------------------------------------------
      LOOP:  cpu time   35.0667: real time   35.2049

 eigenvalue-minimisations  : 23596
 total energy-change (2. order) :-0.2345060E+02  (-0.5769679E+01)
 number of electron     972.0000061 magnetization     170.4491161
 augmentation part      553.1395782 magnetization     140.2936912

 Broyden mixing:
  rms(total) = 0.11245E+02    rms(broyden)= 0.11245E+02
  rms(prec ) = 0.16407E+02
  weight for this iteration     100.00

 eigenvalues of (default mixing * dielectric matrix)
  average eigenvalue GAMMA=   0.3701
  0.9500  0.5715  0.1218  0.1218  0.0858

 Free energy of the ion-electron system (eV)
  ---------------------------------------------------
  alpha Z        PSCENC =      5865.25579871
  Ewald energy   TEWEN  =    -80857.41610069
  -Hartree energ DENC   =    -18896.71930213
  -exchange      EXHF   =         0.00000000
  -V(xc)+E(xc)   XCENC  =      1886.51306253
  PAW double counting   =     93940.92407594   -97985.06641214
  entropy T*S    EENTRO =         0.00000000
  eigenvalues    EBANDS =      4974.76722265
  atomic energy  EATOM  =     90287.11440572
  Solvation  Ediel_sol  =         0.00000000
  ---------------------------------------------------
  free energy    TOTEN  =      -784.62724940 eV

  energy without entropy =     -784.62724940  energy(sigma->0) =     -784.62724940


--------------------------------------------------------------------------------------------------------




--------------------------------------- Iteration      1(  11)  ---------------------------------------


    POTLOK:  cpu time    0.1150: real time    0.1152
    SETDIJ:  cpu time    0.0300: real time    0.0293
    EDDIAG:  cpu time    7.9828: real time    8.0051
  RMM-DIIS:  cpu time   22.9095: real time   23.0144
    ORTHCH:  cpu time    2.9865: real time    2.9964
 BZINTS: Fermi energy:  7.632570;972.000000 electrons
         Band energy:4962.168096;  BLOECHL correction: -0.045227
       DOS:  cpu time    0.1180: real time    0.1178
    CHARGE:  cpu time    0.8969: real time    0.8991
    MIXING:  cpu time    0.0030: real time    0.0034
    --------------------------------------------
      LOOP:  cpu time   35.0417: real time   35.1807

 eigenvalue-minimisations  : 23698
 total energy-change (2. order) : 0.1525190E+02  (-0.3709325E+01)
 number of electron     972.0000054 magnetization     166.1532986
 augmentation part      553.1967094 magnetization     136.6065181

 Broyden mixing:
  rms(total) = 0.92019E+01    rms(broyden)= 0.92017E+01
  rms(prec ) = 0.13542E+02
  weight for this iteration     100.00

 eigenvalues of (default mixing * dielectric matrix)
  average eigenvalue GAMMA=   0.3669
  1.1280  0.5503  0.2009  0.1187  0.1187  0.0849

 Free energy of the ion-electron system (eV)
  ---------------------------------------------------
  alpha Z        PSCENC =      5865.25579871
  Ewald energy   TEWEN  =    -80857.41610069
  -Hartree energ DENC   =    -18809.57010970
  -exchange      EXHF   =         0.00000000
  -V(xc)+E(xc)   XCENC  =      1885.34726729
  PAW double counting   =     95752.02689923   -99854.30160936
  entropy T*S    EENTRO =         0.00000000
  eigenvalues    EBANDS =      4962.16809642
  atomic energy  EATOM  =     90287.11440572
  Solvation  Ediel_sol  =         0.00000000
  ---------------------------------------------------
  free energy    TOTEN  =      -769.37535238 eV

  energy without entropy =     -769.37535238  energy(sigma->0) =     -769.37535238


--------------------------------------------------------------------------------------------------------




--------------------------------------- Iteration      1(  12)  ---------------------------------------


    POTLOK:  cpu time    0.1120: real time    0.1136
    SETDIJ:  cpu time    0.0260: real time    0.0264
    EDDIAG:  cpu time    7.8718: real time    7.8947
  RMM-DIIS:  cpu time   22.5216: real time   22.6200
    ORTHCH:  cpu time    3.5235: real time    3.5350
 BZINTS: Fermi energy:  7.493999;972.000000 electrons
         Band energy:4945.738032;  BLOECHL correction: -0.125445
       DOS:  cpu time    0.1060: real time    0.1060
    CHARGE:  cpu time    0.8449: real time    0.8470
    MIXING:  cpu time    0.0030: real time    0.0029
    --------------------------------------------
      LOOP:  cpu time   35.0087: real time   35.1456

 eigenvalue-minimisations  : 23312
 total energy-change (2. order) : 0.2383921E+02  (-0.3038221E+01)
 number of electron     972.0000067 magnetization     163.8015203
 augmentation part      556.6689788 magnetization     130.8625075

 Broyden mixing:
  rms(total) = 0.51419E+01    rms(broyden)= 0.51416E+01
  rms(prec ) = 0.71188E+01
  weight for this iteration     100.00

 eigenvalues of (default mixing * dielectric matrix)
  average eigenvalue GAMMA=   0.3778
  1.2581  0.4865  0.4865  0.1134  0.1113  0.1113  0.0773

 Free energy of the ion-electron system (eV)
  ---------------------------------------------------
  alpha Z        PSCENC =      5865.25579871
  Ewald energy   TEWEN  =    -80857.41610069
  -Hartree energ DENC   =    -18749.25476875
  -exchange      EXHF   =         0.00000000
  -V(xc)+E(xc)   XCENC  =      1881.90760347
  PAW double counting   =     96476.77302246  -100595.65413480
  entropy T*S    EENTRO =         0.00000000
  eigenvalues    EBANDS =      4945.73803205
  atomic energy  EATOM  =     90287.11440572
  Solvation  Ediel_sol  =         0.00000000
  ---------------------------------------------------
  free energy    TOTEN  =      -745.53614183 eV

  energy without entropy =     -745.53614183  energy(sigma->0) =     -745.53614183


--------------------------------------------------------------------------------------------------------




--------------------------------------- Iteration      1(  13)  ---------------------------------------


    POTLOK:  cpu time    0.1100: real time    0.1114
    SETDIJ:  cpu time    0.0270: real time    0.0261
    EDDIAG:  cpu time    7.9628: real time    7.9875
  RMM-DIIS:  cpu time   22.9735: real time   23.2324
    ORTHCH:  cpu time    2.9925: real time    3.0050
 BZINTS: Fermi energy:  7.452493;972.000000 electrons
         Band energy:4955.843794;  BLOECHL correction: -0.141836
       DOS:  cpu time    0.1230: real time    0.1230
    CHARGE:  cpu time    0.8289: real time    0.8347
    MIXING:  cpu time    0.0040: real time    0.0036
    --------------------------------------------
      LOOP:  cpu time   35.0217: real time   35.3236

 eigenvalue-minimisations  : 23414
 total energy-change (2. order) :-0.9058030E+00  (-0.1201211E+01)
 number of electron     972.0000063 magnetization     161.5933730
 augmentation part      556.1624540 magnetization     129.2033488

 Broyden mixing:
  rms(total) = 0.48753E+01    rms(broyden)= 0.48752E+01
  rms(prec ) = 0.69878E+01
  weight for this iteration     100.00

 eigenvalues of (default mixing * dielectric matrix)
  average eigenvalue GAMMA=   0.3754
  1.3607  0.5577  0.5577  0.1408  0.1119  0.1119  0.0812  0.0812

 Free energy of the ion-electron system (eV)
  ---------------------------------------------------
  alpha Z        PSCENC =      5865.25579871
  Ewald energy   TEWEN  =    -80857.41610069
  -Hartree energ DENC   =    -18743.76477566
  -exchange      EXHF   =         0.00000000
  -V(xc)+E(xc)   XCENC  =      1882.84980891
  PAW double counting   =     96966.24134352  -101102.56621971
  entropy T*S    EENTRO =         0.00000000
  eigenvalues    EBANDS =      4955.84379434
  atomic energy  EATOM  =     90287.11440572
  Solvation  Ediel_sol  =         0.00000000
  ---------------------------------------------------
  free energy    TOTEN  =      -746.44194488 eV

  energy without entropy =     -746.44194488  energy(sigma->0) =     -746.44194488


--------------------------------------------------------------------------------------------------------




--------------------------------------- Iteration      1(  14)  ---------------------------------------


    POTLOK:  cpu time    0.1110: real time    0.1119
    SETDIJ:  cpu time    0.0270: real time    0.0263
    EDDIAG:  cpu time    7.9478: real time    7.9720
  RMM-DIIS:  cpu time   22.5886: real time   22.6844
    ORTHCH:  cpu time    2.9466: real time    2.9537
 BZINTS: Fermi energy:  7.437418;972.000000 electrons
         Band energy:4960.033358;  BLOECHL correction: -0.096171
       DOS:  cpu time    0.1130: real time    0.1145
    CHARGE:  cpu time    0.8299: real time    0.8316
    MIXING:  cpu time    0.0030: real time    0.0033
    --------------------------------------------
      LOOP:  cpu time   34.5667: real time   34.6976

 eigenvalue-minimisations  : 23353
 total energy-change (2. order) : 0.5407480E+01  (-0.5639797E+00)
 number of electron     972.0000064 magnetization     160.5272305
 augmentation part      555.9972069 magnetization     128.7448279

 Broyden mixing:
  rms(total) = 0.39957E+01    rms(broyden)= 0.39956E+01
  rms(prec ) = 0.52583E+01
  weight for this iteration     100.00

 eigenvalues of (default mixing * dielectric matrix)
  average eigenvalue GAMMA=   0.3603
  1.4148  0.5686  0.5686  0.1643  0.1328  0.1328  0.1042  0.0821  0.0741

 Free energy of the ion-electron system (eV)
  ---------------------------------------------------
  alpha Z        PSCENC =      5865.25579871
  Ewald energy   TEWEN  =    -80857.41610069
  -Hartree energ DENC   =    -18729.06190169
  -exchange      EXHF   =         0.00000000
  -V(xc)+E(xc)   XCENC  =      1884.02551517
  PAW double counting   =     97467.03298537  -101618.01852537
  entropy T*S    EENTRO =         0.00000000
  eigenvalues    EBANDS =      4960.03335827
  atomic energy  EATOM  =     90287.11440572
  Solvation  Ediel_sol  =         0.00000000
  ---------------------------------------------------
  free energy    TOTEN  =      -741.03446451 eV

  energy without entropy =     -741.03446451  energy(sigma->0) =     -741.03446451


--------------------------------------------------------------------------------------------------------




--------------------------------------- Iteration      1(  15)  ---------------------------------------


    POTLOK:  cpu time    0.1120: real time    0.1114
    SETDIJ:  cpu time    0.0600: real time    0.0602
    EDDIAG:  cpu time    7.9108: real time    7.9321
  RMM-DIIS:  cpu time   22.9065: real time   23.0187
    ORTHCH:  cpu time    2.9486: real time    2.9562
 BZINTS: Fermi energy:  7.454145;972.000000 electrons
         Band energy:4955.429705;  BLOECHL correction: -0.101689
       DOS:  cpu time    0.1100: real time    0.1116
    CHARGE:  cpu time    0.8609: real time    0.8626
    MIXING:  cpu time    0.0030: real time    0.0033
    --------------------------------------------
      LOOP:  cpu time   34.9117: real time   35.0560

 eigenvalue-minimisations  : 23106
 total energy-change (2. order) : 0.2126880E+01  (-0.4537032E+00)
 number of electron     972.0000065 magnetization     160.0912870
[...]
      3.58786     -8.90673      1.78684        -0.026464     -0.049659      0.013136
      5.37183     -8.91079      3.59307         0.007836      0.044960     -0.054758
      7.17481     -8.90269      5.38166        -0.017688     -0.003676     -0.007368
      1.78691     -7.15119     -1.77887        -0.028171      0.028874     -0.030550
      1.75162     -5.33442     -0.00165        -0.002052      0.001055      0.013874
      1.76773     -3.54663      1.76679         0.031942      0.029928     -0.009341
      3.55926     -7.14152      0.01605        -0.110712     -0.123037      0.124230
      3.60315     -1.75899      5.37499        -0.023392     -0.023642     -0.009657
      5.34091    -10.67971     -1.83836        -0.006982     -0.012473     -0.020877
      5.38814     -7.13703      1.76769         0.016013     -0.053360      0.081556
      5.35723     -3.65098      5.33237         0.002420     -0.004513      0.019248
      5.38300     -1.74107      7.19743         0.009600      0.018924     -0.012384
      7.12166     -3.58841      7.15489         0.020399      0.015813     -0.000490
      8.90624     -8.95290      3.55111        -0.013866     -0.010599     -0.007046
      5.33104     -0.01465     -5.31807         0.015596      0.000384      0.009001
     10.68557     -1.84075      5.29725        -0.027120     -0.027434     -0.053534
      3.59381     -5.34269     -1.76366        -0.279135      0.056862     -0.332422
      3.58895     -3.55754      0.03260        -0.209340      0.276421     -0.081709
      3.59742     -1.80527      1.82847        -0.020082     -0.040349      0.009874
      3.52557      0.00137      3.55781        -0.024629      0.004817      0.002626
      5.33553     -7.15862     -1.77833         0.047681     -0.225294     -0.098645
      5.36917     -5.35751      0.02296         0.183832      0.079318      0.201397
      5.37702     -1.77922      3.60386        -0.001823      0.031433      0.023541
      5.34807      1.79352      7.16423         0.000721      0.008704     -0.025876
      7.17016     -1.80155      5.35132         0.006035      0.009055      0.019912
      7.14617     -8.91821      8.91174         0.002086      0.012602      0.018081
      3.58132     -0.06168      0.00704         0.009693     -0.001501      0.008693
      1.76973    -12.47671      3.55077         0.010840      0.015435      0.020286
      5.31263     -5.34318     -3.58726        -0.020962     -0.004850     -0.067614
      5.34150     -3.53203     -1.77347        -0.103006      0.193514     -0.046926
      5.35849      1.75271      3.56190        -0.003867      0.011534     -0.000971
      7.15475     -3.58948      0.01879         0.091700      0.025294     -0.026129
      7.13926     -1.80030      1.80607         0.001807      0.009380      0.058840
      7.16419      1.82628      5.35539        -0.017306      0.019066      0.004091
      8.96918     -3.64726      1.82206        -0.031568     -0.010560      0.031700
      8.95923      0.02807      5.34514         0.029477      0.036672      0.021583
      5.35374     -0.00415     -1.84413        -0.007172      0.014600      0.006932
      5.37723      1.78262      0.00680         0.000427      0.019556      0.008553
      7.12846     -1.79707     -1.78847         0.005646      0.021301     -0.034160
      7.09510     -0.03278      0.00373        -0.013470     -0.007561     -0.015139
      7.14905      1.75137      1.81062         0.006111     -0.002814      0.028274
      8.88528      1.72455     -0.03259         0.013473      0.006200      0.004276
      7.11276    -10.70842      3.52641        -0.006419     -0.027438     -0.003760
      0.01632     -8.90901      1.78948        -0.014381      0.022403      0.036874
      1.79850    -10.68622      1.77552         0.013219      0.006529     -0.012372
      3.59272     -8.90718      5.37246         0.020757     -0.021617      0.014728
      5.33564     -7.14409      8.92632         0.000920      0.003271      0.022453
      7.13466     -1.78171      8.92837        -0.002925      0.010765      0.009625
      1.78255     -8.91833      0.00973         0.030112      0.021317      0.010398
      1.77624     -7.13238      1.78934         0.041886     -0.007819      0.003860
      3.56603    -12.47425     -1.81336         0.002366     -0.001050     -0.007670
      3.59547     -7.15967      3.56723        -0.022351     -0.021466      0.002183
      3.56714     -5.36963      5.33777        -0.005624      0.000970     -0.008740
      5.33435    -10.71861      1.75801        -0.009242     -0.007453     -0.004811
      5.36465     -7.13737      5.36515         0.010068      0.000489     -0.016468
      5.37291     -5.37261      7.14522        -0.000950     -0.003965     -0.024972
      5.34619     -3.59901      8.91824         0.003559      0.000345      0.005097
      7.14384     -7.12480      7.13651        -0.022562      0.011178     -0.012724
      7.13038      1.79396      8.92748        -0.002398     -0.022967      0.010816
     10.73680     -5.34783      5.33247        -0.008573     -0.002103     -0.011850
      3.56371     -8.92436     -1.79044        -0.000221      0.001315     -0.002941
      3.56085     -5.36747      1.78301        -0.055022      0.013323      0.067834
      3.57196     -3.59116      3.58028         0.036344     -0.041635     -0.058493
      5.34677     -8.92888     -0.01026        -0.011274     -0.013342     -0.022695
      5.35715     -5.36494      3.54444         0.011012     -0.016100      0.024928
      7.13466     -8.90559      1.78312         0.047535     -0.039708      0.004463
      7.15424     -7.13186      3.56833         0.049078      0.008376      0.013457
      7.13574     -5.37358      5.34708         0.012817     -0.011095     -0.012530
      8.94654     -7.15924      5.34303         0.006642     -0.009426     -0.005967
      1.79228     -3.56777     -1.76105         0.005883      0.022912      0.009262
      1.77470     -1.78507      0.01028         0.021144     -0.015191     -0.006778
      1.77237     -0.00759      1.76293         0.008782      0.004570     -0.008083
      5.35994     -3.58232      1.80516        -0.012831     -0.065002      0.062780
      5.38629      0.01917      5.37603         0.001201     -0.028601     -0.010077
      7.13388     -7.13808     -0.02062         0.064272      0.021776      0.001508
      7.15308     -5.34952      1.78741        -0.009342     -0.055581      0.049143
      7.15541     -3.59841      3.57686        -0.028875     -0.025063     -0.033312
      7.15741      0.01586      7.14477        -0.005656     -0.010495      0.020163
      8.92827     -5.37729      3.58129         0.025378     -0.012253      0.028451
      8.91213     -3.57311      5.35784         0.006681     -0.004341     -0.005365
      3.57750     -3.56073     -3.55723        -0.007408      0.027701     -0.008407
      3.56593     -1.77800     -1.79635        -0.022091     -0.003764     -0.007784
      5.34652     -1.79577      0.03441        -0.000589     -0.002294      0.017907
      5.35372     -0.02297      1.80542         0.015144     -0.008384      0.032552
      5.35989      3.55337      5.34054        -0.007531      0.000695     -0.013129
      7.16401     -0.00646      3.59049         0.008916     -0.007073      0.003856
      7.14365      3.58582      7.15680        -0.013325      0.005085      0.003041
      8.92916     -1.79655      3.55172         0.017182      0.006924      0.001244
      8.91604     -8.91083      7.13975         0.009145      0.003887     -0.014242
      5.33128     -1.78877     -3.57764        -0.003403     -0.004435      0.015661
      5.37204    -10.70619      5.35887         0.020829      0.007882      0.010303
      8.93731      0.00661      1.81065         0.000003      0.001722     -0.007622
      8.92513      1.80803      3.56748        -0.016362     -0.005215     -0.010799
      8.93833      3.58678      5.36468         0.001533     -0.001549      0.009064
     10.70079      0.00994      3.58902         0.020136      0.006702      0.003931
      5.32388    -12.49622     -0.03788        -0.000209     -0.005312     -0.002183
     10.69519      3.57364      3.56624         0.008298      0.008746     -0.019694
 -----------------------------------------------------------------------------------
    total drift:                                0.001527     -0.007075      0.004060


--------------------------------------------------------------------------------------------------------



  FREE ENERGIE OF THE ION-ELECTRON SYSTEM (eV)
  ---------------------------------------------------
  free  energy   TOTEN  =      -741.33174785 eV

  energy  without entropy=     -741.33174785  energy(sigma->0) =     -741.33174785
 


--------------------------------------------------------------------------------------------------------


    POTLOK:  cpu time    0.1400: real time    0.1400


--------------------------------------------------------------------------------------------------------


     LOOP+:  cpu time 1836.5648: real time 1844.4764
    4ORBIT:  cpu time    0.0000: real time    0.0000
 


 total charge     
 
# of ion       s       p       d       tot
------------------------------------------
    1        0.478   0.508   6.200   7.185
    2        0.469   0.498   6.180   7.148
    3        0.471   0.493   6.180   7.144
    4        0.476   0.507   6.208   7.191
    5        0.472   0.499   6.193   7.164
    6        0.475   0.505   6.199   7.179
    7        0.467   0.494   6.144   7.105
    8        0.468   0.494   6.169   7.132
    9        0.469   0.498   6.171   7.138
   10        0.471   0.502   6.174   7.146
   11        0.472   0.500   6.181   7.153
   12        0.477   0.508   6.203   7.189
   13        0.471   0.500   6.190   7.161
   14        0.472   0.498   6.175   7.145
   15        0.474   0.502   6.199   7.174
   16        0.475   0.504   6.196   7.174
   17        0.478   0.505   6.206   7.189
   18        0.480   0.511   6.205   7.196
   19        0.470   0.500   6.196   7.166
   20        0.471   0.500   6.179   7.150
   21        0.474   0.499   6.188   7.160
   22        0.473   0.502   6.177   7.152
   23        0.468   0.497   6.165   7.130
   24        0.475   0.502   6.199   7.176
   25        0.470   0.499   6.177   7.146
   26        0.469   0.496   6.161   7.126
   27        0.472   0.502   6.173   7.147
   28        0.482   0.518   6.215   7.215
   29        0.476   0.505   6.199   7.180
   30        0.479   0.511   6.209   7.198
   31        0.481   0.510   6.220   7.212
   32        0.477   0.509   6.190   7.176
   33        0.482   0.519   6.207   7.208
   34        0.474   0.499   6.200   7.173
   35        0.466   0.488   6.153   7.107
   36        0.470   0.497   6.187   7.154
   37        0.470   0.495   6.185   7.150
   38        0.471   0.504   6.183   7.159
   39        0.470   0.501   6.192   7.164
   40        0.476   0.505   6.196   7.176
   41        0.481   0.513   6.203   7.198
   42        0.474   0.501   6.200   7.175
   43        0.471   0.499   6.202   7.173
   44        0.468   0.495   6.178   7.142
   45        0.466   0.490   6.161   7.117
   46        0.472   0.502   6.168   7.141
   47        0.468   0.495   6.185   7.147
   48        0.470   0.499   6.186   7.156
   49        0.473   0.505   6.201   7.180
   50        0.480   0.512   6.213   7.205
   51        0.480   0.514   6.218   7.212
   52        0.475   0.502   6.192   7.169
   53        0.472   0.501   6.204   7.177
   54        0.472   0.496   6.197   7.164
   55        0.502   0.504   8.311   9.317
   56        0.514   0.524   8.315   9.354
   57        0.503   0.506   8.311   9.321
   58        0.502   0.504   8.311   9.317
   59        0.504   0.508   8.311   9.324
   60        0.506   0.511   8.309   9.326
   61        0.507   0.510   8.307   9.324
   62        0.509   0.517   8.318   9.344
   63        0.502   0.501   8.312   9.314
   64        0.505   0.504   8.325   9.335
   65        0.512   0.522   8.312   9.346
   66        0.497   0.493   8.311   9.301
   67        0.506   0.505   8.327   9.338
   68        0.506   0.505   8.328   9.339
   69        0.502   0.502   8.316   9.321
   70        0.499   0.494   8.317   9.311
   71        0.502   0.496   8.319   9.317
   72        0.509   0.517   8.310   9.335
   73        0.504   0.507   8.316   9.326
   74        0.508   0.511   8.314   9.332
   75        0.513   0.524   8.309   9.345
   76        0.491   0.483   8.313   9.288
   77        0.503   0.504   8.322   9.330
   78        0.501   0.499   8.323   9.322
   79        0.497   0.493   8.311   9.301
   80        0.500   0.496   8.319   9.314
   81        0.496   0.492   8.311   9.299
   82        0.502   0.505   8.309   9.316
   83        0.510   0.520   8.306   9.336
   84        0.504   0.505   8.316   9.325
   85        0.510   0.517   8.310   9.338
   86        0.507   0.510   8.321   9.338
   87        0.508   0.508   8.322   9.338
   88        0.501   0.502   8.308   9.311
   89        0.504   0.507   8.316   9.326
   90        0.496   0.489   8.318   9.303
   91        0.504   0.501   8.323   9.329
   92        0.500   0.493   8.316   9.309
   93        0.501   0.502   8.311   9.314
   94        0.516   0.529   8.316   9.361
   95        0.520   0.535   8.309   9.364
   96        0.508   0.513   8.312   9.333
   97        0.508   0.516   8.313   9.336
   98        0.504   0.503   8.311   9.318
   99        0.507   0.509   8.315   9.330
  100        0.507   0.506   8.323   9.336
  101        0.507   0.507   8.319   9.332
  102        0.511   0.517   8.316   9.344
  103        0.507   0.511   8.313   9.331
  104        0.503   0.501   8.313   9.318
  105        0.498   0.495   8.317   9.310
  106        0.505   0.506   8.325   9.336
  107        0.509   0.519   8.304   9.333
  108        0.503   0.500   8.313   9.317
--------------------------------------------------
tot         52.813  54.466 783.237 890.515
 


 magnetization (x)
 
# of ion       s       p       d       tot
------------------------------------------
    1       -0.010  -0.035   2.600   2.556
    2       -0.006  -0.033   2.664   2.624
    3       -0.001  -0.018   2.668   2.649
    4       -0.011  -0.038   2.556   2.506
    5       -0.003  -0.022   2.633   2.607
    6       -0.011  -0.038   2.592   2.543
    7        0.005  -0.016   2.782   2.770
    8        0.000  -0.021   2.705   2.684
    9       -0.001  -0.022   2.705   2.683
   10       -0.005  -0.029   2.703   2.669
   11       -0.003  -0.024   2.678   2.652
   12       -0.008  -0.030   2.591   2.553
   13       -0.002  -0.025   2.636   2.610
   14        0.000  -0.019   2.688   2.669
   15       -0.007  -0.030   2.601   2.564
   16       -0.004  -0.026   2.614   2.584
   17       -0.009  -0.028   2.580   2.543
   18       -0.008  -0.032   2.594   2.553
   19       -0.011  -0.041   2.600   2.548
   20       -0.003  -0.026   2.681   2.652
   21       -0.002  -0.018   2.645   2.626
   22       -0.006  -0.029   2.676   2.642
   23       -0.001  -0.026   2.722   2.695
   24       -0.006  -0.027   2.601   2.568
   25       -0.002  -0.024   2.681   2.655
   26        0.002  -0.016   2.742   2.728
   27       -0.002  -0.025   2.694   2.667
   28       -0.014  -0.044   2.535   2.477
   29       -0.005  -0.025   2.616   2.586
   30       -0.005  -0.029   2.586   2.552
   31       -0.012  -0.034   2.530   2.484
   32       -0.007  -0.030   2.658   2.621
   33       -0.011  -0.037   2.590   2.542
   34       -0.006  -0.025   2.610   2.579
   35        0.002  -0.016   2.754   2.740
   36       -0.004  -0.026   2.648   2.618
   37       -0.002  -0.023   2.651   2.625
   38       -0.007  -0.034   2.669   2.627
   39       -0.009  -0.039   2.630   2.582
   40       -0.008  -0.029   2.612   2.575
   41       -0.010  -0.034   2.591   2.547
   42       -0.008  -0.033   2.590   2.549
   43       -0.007  -0.031   2.596   2.558
   44       -0.002  -0.024   2.684   2.658
   45        0.002  -0.018   2.728   2.712
   46       -0.003  -0.026   2.712   2.684
   47       -0.004  -0.025   2.644   2.615
   48       -0.002  -0.024   2.663   2.636
   49       -0.010  -0.039   2.599   2.550
   50       -0.009  -0.035   2.554   2.509
   51       -0.012  -0.040   2.534   2.481
   52       -0.004  -0.027   2.626   2.595
   53       -0.007  -0.033   2.588   2.548
   54       -0.006  -0.027   2.615   2.582
   55       -0.020  -0.046   0.723   0.658
   56       -0.031  -0.064   0.688   0.594
   57       -0.021  -0.049   0.712   0.643
   58       -0.025  -0.053   0.705   0.628
   59       -0.022  -0.047   0.712   0.643
   60       -0.025  -0.054   0.732   0.653
   61       -0.023  -0.050   0.746   0.674
   62       -0.024  -0.053   0.692   0.616
   63       -0.019  -0.040   0.710   0.651
   64       -0.021  -0.043   0.663   0.598
   65       -0.030  -0.062   0.716   0.624
   66       -0.019  -0.042   0.679   0.618
   67       -0.020  -0.041   0.637   0.576
   68       -0.021  -0.044   0.633   0.568
   69       -0.021  -0.046   0.689   0.622
   70       -0.018  -0.037   0.665   0.610
   71       -0.019  -0.035   0.669   0.616
   72       -0.023  -0.051   0.754   0.680
   73       -0.024  -0.049   0.701   0.628
   74       -0.026  -0.052   0.701   0.623
   75       -0.027  -0.059   0.736   0.651
   76       -0.014  -0.031   0.673   0.628
   77       -0.022  -0.049   0.671   0.600
   78       -0.021  -0.042   0.639   0.575
   79       -0.015  -0.036   0.684   0.633
   80       -0.017  -0.038   0.677   0.621
   81       -0.019  -0.041   0.695   0.634
   82       -0.022  -0.047   0.727   0.658
   83       -0.026  -0.056   0.753   0.671
   84       -0.022  -0.045   0.698   0.632
   85       -0.029  -0.060   0.723   0.634
   86       -0.024  -0.047   0.685   0.615
   87       -0.021  -0.039   0.677   0.616
   88       -0.020  -0.044   0.712   0.648
   89       -0.024  -0.053   0.687   0.610
   90       -0.014  -0.033   0.648   0.601
   91       -0.020  -0.041   0.652   0.590
   92       -0.018  -0.036   0.674   0.619
   93       -0.020  -0.043   0.724   0.662
   94       -0.028  -0.059   0.717   0.630
   95       -0.033  -0.067   0.725   0.625
   96       -0.028  -0.058   0.705   0.620
   97       -0.026  -0.056   0.719   0.638
   98       -0.024  -0.050   0.712   0.639
   99       -0.023  -0.046   0.719   0.650
  100       -0.019  -0.038   0.675   0.619
  101       -0.021  -0.043   0.694   0.630
  102       -0.028  -0.057   0.692   0.608
  103       -0.024  -0.051   0.716   0.642
  104       -0.021  -0.043   0.699   0.635
  105       -0.019  -0.042   0.665   0.604
  106       -0.021  -0.044   0.674   0.609
  107       -0.027  -0.060   0.757   0.671
  108       -0.023  -0.045   0.689   0.620
--------------------------------------------------
tot         -1.496  -4.081 180.070 174.493
 
 BZINTS: Fermi energy:  7.459838;972.000000 electrons
         Band energy:4920.218407;  BLOECHL correction: -0.293481

 total amount of memory used by VASP MPI-rank0   126093. kBytes
=======================================================================

   base      :      30000. kBytes
   nonlr-proj:      17419. kBytes
   fftplans  :       3141. kBytes
   grid      :       8349. kBytes
   one-center:        124. kBytes
   wavefun   :      67060. kBytes
 
  
  
 General timing and accounting informations for this job:
 ========================================================
  
                  Total CPU time used (sec):     1927.906
                            User time (sec):     1886.978
                          System time (sec):       40.928
                         Elapsed time (sec):     1946.248
  
                   Maximum memory used (kb):      261508.
                   Average memory used (kb):           0.
  
                          Minor page faults:      1729702
                          Major page faults:            0
                 Voluntary context switches:         9229
