  69  69   1   0
  0.2729094E+02  0.1011163E-08  0.1011163E-08  0.2126643E-08  0.1500000E-16
  1.000000000000000E-004
  CAR 
 SQS-NiFe                                
      2.40558247    -21.95866351  301     -0.47249878      1.00000000
    -21.959  0.0000E+00  0.0000E+00
    -21.877  0.0000E+00  0.0000E+00
    -21.796  0.0000E+00  0.0000E+00
    -21.715  0.0000E+00  0.0000E+00
    -21.634  0.0000E+00  0.0000E+00
    -21.553  0.0000E+00  0.0000E+00
    -21.471  0.0000E+00  0.0000E+00
    -21.390  0.0000E+00  0.0000E+00
    -21.309  0.0000E+00  0.0000E+00
    -21.228  0.0000E+00  0.0000E+00
    -21.147  0.0000E+00  0.0000E+00
    -21.065  0.7270E-16  0.5904E-17
    -20.984  0.5821E-14  0.4786E-15
    -20.903  0.3422E-12  0.2827E-13
    -20.822  0.1454E-10  0.1209E-11
    -20.740  0.4463E-09  0.3746E-10
    -20.659  0.9912E-08  0.8425E-09
    -20.578  0.1594E-06  0.1378E-07
    -20.497  0.1857E-05  0.1646E-06
    -20.416  0.1570E-04  0.1440E-05
    -20.334  0.9662E-04  0.9287E-05
    -20.253  0.4350E-03  0.4461E-04
    -20.172  0.1445E-02  0.1620E-03
    -20.091  0.3609E-02  0.4551E-03
    -20.010  0.6991E-02  0.1023E-02
    -19.928  0.1105E-01  0.1920E-02
    -19.847  0.1517E-01  0.3152E-02
    -19.766  0.1895E-01  0.4691E-02
    -19.685  0.2158E-01  0.6444E-02
    -19.603  0.2168E-01  0.8205E-02
    -19.522  0.1835E-01  0.9696E-02
    -19.441  0.1254E-01  0.1071E-01
    -19.360  0.6679E-02  0.1126E-01
    -19.279  0.2709E-02  0.1148E-01
    -19.197  0.8227E-03  0.1154E-01
    -19.116  0.1852E-03  0.1156E-01
    -19.035  0.3068E-04  0.1156E-01
    -18.954  0.3726E-05  0.1156E-01
    -18.873  0.3305E-06  0.1156E-01
    -18.791  0.2137E-07  0.1156E-01
    -18.710  0.1005E-08  0.1156E-01
    -18.629  0.3435E-10  0.1156E-01
    -18.548  0.8519E-12  0.1156E-01
    -18.466  0.1531E-13  0.1156E-01
    -18.385  0.2023E-15  0.1156E-01
    -18.304  0.0000E+00  0.1156E-01
    -18.223  0.0000E+00  0.1156E-01
    -18.142  0.0000E+00  0.1156E-01
    -18.060  0.0000E+00  0.1156E-01
    -17.979  0.0000E+00  0.1156E-01
    -17.898  0.0000E+00  0.1156E-01
    -17.817  0.0000E+00  0.1156E-01
    -17.736  0.0000E+00  0.1156E-01
    -17.654  0.0000E+00  0.1156E-01
    -17.573  0.0000E+00  0.1156E-01
    -17.492  0.0000E+00  0.1156E-01
    -17.411  0.0000E+00  0.1156E-01
    -17.329  0.0000E+00  0.1156E-01
    -17.248  0.0000E+00  0.1156E-01
    -17.167  0.0000E+00  0.1156E-01
    -17.086  0.0000E+00  0.1156E-01
    -17.005  0.0000E+00  0.1156E-01
    -16.923  0.0000E+00  0.1156E-01
    -16.842  0.0000E+00  0.1156E-01
    -16.761  0.0000E+00  0.1156E-01
    -16.680  0.0000E+00  0.1156E-01
    -16.599  0.0000E+00  0.1156E-01
    -16.517  0.0000E+00  0.1156E-01
    -16.436  0.0000E+00  0.1156E-01
    -16.355  0.0000E+00  0.1156E-01
    -16.274  0.0000E+00  0.1156E-01
    -16.192  0.0000E+00  0.1156E-01
    -16.111  0.0000E+00  0.1156E-01
    -16.030  0.0000E+00  0.1156E-01
    -15.949  0.0000E+00  0.1156E-01
    -15.868  0.0000E+00  0.1156E-01
    -15.786  0.0000E+00  0.1156E-01
    -15.705  0.0000E+00  0.1156E-01
    -15.624  0.0000E+00  0.1156E-01
    -15.543  0.0000E+00  0.1156E-01
    -15.462  0.0000E+00  0.1156E-01
    -15.380  0.0000E+00  0.1156E-01
    -15.299  0.0000E+00  0.1156E-01
    -15.218  0.0000E+00  0.1156E-01
    -15.137  0.0000E+00  0.1156E-01
    -15.055  0.0000E+00  0.1156E-01
    -14.974  0.0000E+00  0.1156E-01
    -14.893  0.0000E+00  0.1156E-01
    -14.812  0.0000E+00  0.1156E-01
    -14.731  0.0000E+00  0.1156E-01
    -14.649  0.0000E+00  0.1156E-01
    -14.568  0.0000E+00  0.1156E-01
    -14.487  0.0000E+00  0.1156E-01
    -14.406  0.0000E+00  0.1156E-01
    -14.325  0.0000E+00  0.1156E-01
    -14.243  0.0000E+00  0.1156E-01
    -14.162  0.0000E+00  0.1156E-01
    -14.081  0.0000E+00  0.1156E-01
    -14.000  0.0000E+00  0.1156E-01
    -13.918  0.0000E+00  0.1156E-01
    -13.837  0.0000E+00  0.1156E-01
    -13.756  0.0000E+00  0.1156E-01
    -13.675  0.0000E+00  0.1156E-01
    -13.594  0.0000E+00  0.1156E-01
    -13.512  0.0000E+00  0.1156E-01
    -13.431  0.0000E+00  0.1156E-01
    -13.350  0.0000E+00  0.1156E-01
    -13.269  0.0000E+00  0.1156E-01
    -13.188  0.0000E+00  0.1156E-01
    -13.106  0.0000E+00  0.1156E-01
    -13.025  0.0000E+00  0.1156E-01
    -12.944  0.0000E+00  0.1156E-01
    -12.863  0.0000E+00  0.1156E-01
    -12.781  0.0000E+00  0.1156E-01
    -12.700  0.0000E+00  0.1156E-01
    -12.619  0.0000E+00  0.1156E-01
    -12.538  0.0000E+00  0.1156E-01
    -12.457  0.0000E+00  0.1156E-01
    -12.375  0.0000E+00  0.1156E-01
    -12.294  0.0000E+00  0.1156E-01
    -12.213  0.0000E+00  0.1156E-01
    -12.132  0.0000E+00  0.1156E-01
    -12.051  0.0000E+00  0.1156E-01
    -11.969  0.0000E+00  0.1156E-01
    -11.888  0.0000E+00  0.1156E-01
    -11.807  0.0000E+00  0.1156E-01
    -11.726  0.0000E+00  0.1156E-01
    -11.644  0.0000E+00  0.1156E-01
    -11.563  0.0000E+00  0.1156E-01
    -11.482  0.0000E+00  0.1156E-01
    -11.401  0.0000E+00  0.1156E-01
    -11.320  0.0000E+00  0.1156E-01
    -11.238  0.0000E+00  0.1156E-01
    -11.157  0.0000E+00  0.1156E-01
    -11.076  0.0000E+00  0.1156E-01
    -10.995  0.0000E+00  0.1156E-01
    -10.914  0.0000E+00  0.1156E-01
    -10.832  0.0000E+00  0.1156E-01
    -10.751  0.0000E+00  0.1156E-01
    -10.670  0.0000E+00  0.1156E-01
    -10.589  0.0000E+00  0.1156E-01
    -10.507  0.0000E+00  0.1156E-01
    -10.426  0.0000E+00  0.1156E-01
    -10.345  0.0000E+00  0.1156E-01
    -10.264  0.0000E+00  0.1156E-01
    -10.183  0.0000E+00  0.1156E-01
    -10.101  0.0000E+00  0.1156E-01
    -10.020  0.0000E+00  0.1156E-01
     -9.939  0.0000E+00  0.1156E-01
     -9.858  0.0000E+00  0.1156E-01
     -9.777  0.0000E+00  0.1156E-01
     -9.695  0.0000E+00  0.1156E-01
     -9.614  0.0000E+00  0.1156E-01
     -9.533  0.5215E-16  0.1156E-01
     -9.452  0.4262E-14  0.1156E-01
     -9.370  0.2566E-12  0.1156E-01
     -9.289  0.1116E-10  0.1156E-01
     -9.208  0.3507E-09  0.1156E-01
     -9.127  0.7972E-08  0.1156E-01
     -9.046  0.1311E-06  0.1156E-01
     -8.964  0.1560E-05  0.1156E-01
     -8.883  0.1344E-04  0.1156E-01
     -8.802  0.8390E-04  0.1157E-01
     -8.721  0.3795E-03  0.1160E-01
     -8.640  0.1245E-02  0.1170E-01
     -8.558  0.2960E-02  0.1194E-01
     -8.477  0.5108E-02  0.1236E-01
     -8.396  0.6393E-02  0.1288E-01
     -8.315  0.5806E-02  0.1335E-01
     -8.233  0.3825E-02  0.1366E-01
     -8.152  0.1828E-02  0.1381E-01
     -8.071  0.6338E-03  0.1386E-01
     -7.990  0.1593E-03  0.1387E-01
     -7.909  0.2903E-04  0.1387E-01
     -7.827  0.3855E-05  0.1387E-01
     -7.746  0.7059E-06  0.1387E-01
     -7.665  0.3613E-05  0.1387E-01
     -7.584  0.2745E-04  0.1388E-01
     -7.503  0.1522E-03  0.1389E-01
     -7.421  0.6119E-03  0.1394E-01
     -7.340  0.1789E-02  0.1408E-01
     -7.259  0.3828E-02  0.1439E-01
     -7.178  0.6133E-02  0.1489E-01
     -7.096  0.7907E-02  0.1553E-01
     -7.015  0.9726E-02  0.1632E-01
     -6.934  0.1358E-01  0.1743E-01
     -6.853  0.2026E-01  0.1907E-01
     -6.772  0.2747E-01  0.2130E-01
     -6.690  0.3144E-01  0.2386E-01
     -6.609  0.3023E-01  0.2631E-01
     -6.528  0.2541E-01  0.2837E-01
     -6.447  0.2148E-01  0.3012E-01
     -6.366  0.2266E-01  0.3196E-01
     -6.284  0.2942E-01  0.3435E-01
     -6.203  0.3839E-01  0.3747E-01
     -6.122  0.4576E-01  0.4118E-01
     -6.041  0.4969E-01  0.4522E-01
     -5.959  0.5016E-01  0.4929E-01
     -5.878  0.4768E-01  0.5316E-01
     -5.797  0.4214E-01  0.5659E-01
     -5.716  0.3332E-01  0.5929E-01
     -5.635  0.2295E-01  0.6116E-01
     -5.553  0.1503E-01  0.6238E-01
     -5.472  0.1291E-01  0.6343E-01
     -5.391  0.1697E-01  0.6480E-01
     -5.310  0.2516E-01  0.6685E-01
     -5.229  0.3391E-01  0.6960E-01
     -5.147  0.3903E-01  0.7277E-01
     -5.066  0.3778E-01  0.7584E-01
     -4.985  0.3087E-01  0.7835E-01
     -4.904  0.2246E-01  0.8017E-01
     -4.822  0.1777E-01  0.8161E-01
     -4.741  0.1984E-01  0.8323E-01
     -4.660  0.2774E-01  0.8548E-01
     -4.579  0.3678E-01  0.8847E-01
     -4.498  0.4114E-01  0.9181E-01
     -4.416  0.3986E-01  0.9504E-01
     -4.335  0.3993E-01  0.9829E-01
     -4.254  0.5001E-01  0.1023E+00
     -4.173  0.7146E-01  0.1082E+00
     -4.092  0.9825E-01  0.1161E+00
     -4.010  0.1232E+00  0.1261E+00
     -3.929  0.1406E+00  0.1376E+00
     -3.848  0.1455E+00  0.1494E+00
     -3.767  0.1363E+00  0.1604E+00
     -3.685  0.1176E+00  0.1700E+00
     -3.604  0.9865E-01  0.1780E+00
     -3.523  0.8932E-01  0.1853E+00
     -3.442  0.9409E-01  0.1929E+00
     -3.361  0.1079E+00  0.2017E+00
     -3.279  0.1191E+00  0.2113E+00
     -3.198  0.1198E+00  0.2211E+00
     -3.117  0.1136E+00  0.2303E+00
     -3.036  0.1110E+00  0.2393E+00
     -2.955  0.1180E+00  0.2489E+00
     -2.873  0.1296E+00  0.2594E+00
     -2.792  0.1368E+00  0.2705E+00
     -2.711  0.1378E+00  0.2817E+00
     -2.630  0.1385E+00  0.2930E+00
     -2.548  0.1427E+00  0.3046E+00
     -2.467  0.1484E+00  0.3166E+00
     -2.386  0.1518E+00  0.3289E+00
     -2.305  0.1542E+00  0.3415E+00
     -2.224  0.1605E+00  0.3545E+00
     -2.142  0.1736E+00  0.3686E+00
     -2.061  0.1899E+00  0.3840E+00
     -1.980  0.2021E+00  0.4004E+00
     -1.899  0.2064E+00  0.4172E+00
     -1.818  0.2045E+00  0.4338E+00
     -1.736  0.1989E+00  0.4499E+00
     -1.655  0.1887E+00  0.4653E+00
     -1.574  0.1734E+00  0.4793E+00
     -1.493  0.1566E+00  0.4921E+00
     -1.411  0.1443E+00  0.5038E+00
     -1.330  0.1401E+00  0.5152E+00
     -1.249  0.1436E+00  0.5268E+00
     -1.168  0.1509E+00  0.5391E+00
     -1.087  0.1580E+00  0.5519E+00
     -1.005  0.1635E+00  0.5652E+00
     -0.924  0.1683E+00  0.5789E+00
     -0.843  0.1737E+00  0.5930E+00
     -0.762  0.1803E+00  0.6076E+00
     -0.681  0.1881E+00  0.6229E+00
     -0.599  0.1951E+00  0.6387E+00
     -0.518  0.1973E+00  0.6548E+00
     -0.437  0.1912E+00  0.6703E+00
     -0.356  0.1771E+00  0.6847E+00
     -0.274  0.1604E+00  0.6977E+00
     -0.193  0.1474E+00  0.7097E+00
     -0.112  0.1410E+00  0.7211E+00
     -0.031  0.1414E+00  0.7326E+00
      0.050  0.1463E+00  0.7445E+00
      0.132  0.1510E+00  0.7567E+00
      0.213  0.1480E+00  0.7688E+00
      0.294  0.1315E+00  0.7794E+00
      0.375  0.1018E+00  0.7877E+00
      0.456  0.6628E-01  0.7931E+00
      0.538  0.3523E-01  0.7960E+00
      0.619  0.1489E-01  0.7972E+00
      0.700  0.4902E-02  0.7976E+00
      0.781  0.1234E-02  0.7977E+00
      0.863  0.2348E-03  0.7977E+00
      0.944  0.3341E-04  0.7977E+00
      1.025  0.3529E-05  0.7977E+00
      1.106  0.2753E-06  0.7977E+00
      1.187  0.1578E-07  0.7977E+00
      1.269  0.6633E-09  0.7977E+00
      1.350  0.2037E-10  0.7977E+00
      1.431  0.4563E-12  0.7977E+00
      1.512  0.7437E-14  0.7977E+00
      1.593  0.8850E-16  0.7977E+00
      1.675  0.0000E+00  0.7977E+00
      1.756  0.0000E+00  0.7977E+00
      1.837  0.0000E+00  0.7977E+00
      1.918  0.0000E+00  0.7977E+00
      2.000  0.0000E+00  0.7977E+00
      2.081  0.0000E+00  0.7977E+00
      2.162  0.0000E+00  0.7977E+00
      2.243  0.0000E+00  0.7977E+00
      2.324  0.0000E+00  0.7977E+00
      2.406  0.0000E+00  0.7977E+00
      2.40558247    -21.95866351  301     -0.47249878      1.00000000
    -21.959  0.0000E+00  0.0000E+00  0.0000E+00
    -21.877  0.0000E+00  0.0000E+00  0.0000E+00
    -21.796  0.0000E+00  0.0000E+00  0.0000E+00
    -21.715  0.0000E+00  0.0000E+00  0.0000E+00
    -21.634  0.0000E+00  0.0000E+00  0.0000E+00
    -21.553  0.0000E+00  0.0000E+00  0.0000E+00
    -21.471  0.0000E+00  0.0000E+00  0.0000E+00
    -21.390  0.0000E+00  0.0000E+00  0.0000E+00
    -21.309  0.0000E+00  0.0000E+00  0.0000E+00
    -21.228  0.0000E+00  0.0000E+00  0.0000E+00
    -21.147  0.0000E+00  0.0000E+00  0.0000E+00
    -21.065  0.6304E-24  0.4639E-24  0.4457E-24
    -20.984  0.5048E-22  0.3714E-22  0.3568E-22
    -20.903  0.2967E-20  0.2184E-20  0.2098E-20
    -20.822  0.1260E-18  0.9273E-19  0.8908E-19
    -20.740  0.3868E-17  0.2846E-17  0.2734E-17
    -20.659  0.8586E-16  0.6318E-16  0.6070E-16
    -20.578  0.1379E-14  0.1015E-14  0.9748E-15
    -20.497  0.1603E-13  0.1180E-13  0.1133E-13
    -20.416  0.1350E-12  0.9943E-13  0.9545E-13
    -20.334  0.8244E-12  0.6077E-12  0.5829E-12
    -20.253  0.3658E-11  0.2701E-11  0.2586E-11
    -20.172  0.1184E-10  0.8770E-11  0.8354E-11
    -20.091  0.2828E-10  0.2104E-10  0.1979E-10
    -20.010  0.5116E-10  0.3835E-10  0.3496E-10
    -19.928  0.7495E-10  0.5668E-10  0.4779E-10
    -19.847  0.1005E-09  0.7640E-10  0.5475E-10
    -19.766  0.1376E-09  0.1044E-09  0.5871E-10
    -19.685  0.1876E-09  0.1416E-09  0.6220E-10
    -19.603  0.2267E-09  0.1704E-09  0.6122E-10
    -19.522  0.2224E-09  0.1667E-09  0.5092E-10
    -19.441  0.1694E-09  0.1266E-09  0.3366E-10
    -19.360  0.9769E-10  0.7280E-10  0.1714E-10
    -19.279  0.4205E-10  0.3121E-10  0.6609E-11
    -19.197  0.1338E-10  0.9890E-11  0.1908E-11
    -19.116  0.3126E-11  0.2301E-11  0.4092E-12
    -19.035  0.5342E-12  0.3917E-12  0.6485E-13
    -18.954  0.6654E-13  0.4863E-13  0.7565E-14
    -18.873  0.6030E-14  0.4394E-14  0.6474E-15
    -18.791  0.3970E-15  0.2885E-15  0.4055E-16
    -18.710  0.1896E-16  0.1375E-16  0.1855E-17
    -18.629  0.6560E-18  0.4750E-18  0.6188E-19
    -18.548  0.1644E-19  0.1188E-19  0.1503E-20
    -18.466  0.2981E-21  0.2152E-21  0.2653E-22
    -18.385  0.3946E-23  0.2848E-23  0.3491E-24
    -18.304  0.0000E+00  0.0000E+00  0.0000E+00
    -18.223  0.0000E+00  0.0000E+00  0.0000E+00
    -18.142  0.0000E+00  0.0000E+00  0.0000E+00
    -18.060  0.0000E+00  0.0000E+00  0.0000E+00
    -17.979  0.0000E+00  0.0000E+00  0.0000E+00
    -17.898  0.0000E+00  0.0000E+00  0.0000E+00
    -17.817  0.0000E+00  0.0000E+00  0.0000E+00
    -17.736  0.0000E+00  0.0000E+00  0.0000E+00
    -17.654  0.0000E+00  0.0000E+00  0.0000E+00
    -17.573  0.0000E+00  0.0000E+00  0.0000E+00
    -17.492  0.0000E+00  0.0000E+00  0.0000E+00
    -17.411  0.0000E+00  0.0000E+00  0.0000E+00
    -17.329  0.0000E+00  0.0000E+00  0.0000E+00
    -17.248  0.0000E+00  0.0000E+00  0.0000E+00
    -17.167  0.0000E+00  0.0000E+00  0.0000E+00
    -17.086  0.0000E+00  0.0000E+00  0.0000E+00
    -17.005  0.0000E+00  0.0000E+00  0.0000E+00
    -16.923  0.0000E+00  0.0000E+00  0.0000E+00
    -16.842  0.0000E+00  0.0000E+00  0.0000E+00
    -16.761  0.0000E+00  0.0000E+00  0.0000E+00
    -16.680  0.0000E+00  0.0000E+00  0.0000E+00
    -16.599  0.0000E+00  0.0000E+00  0.0000E+00
    -16.517  0.0000E+00  0.0000E+00  0.0000E+00
    -16.436  0.0000E+00  0.0000E+00  0.0000E+00
    -16.355  0.0000E+00  0.0000E+00  0.0000E+00
    -16.274  0.0000E+00  0.0000E+00  0.0000E+00
    -16.192  0.0000E+00  0.0000E+00  0.0000E+00
    -16.111  0.0000E+00  0.0000E+00  0.0000E+00
    -16.030  0.0000E+00  0.0000E+00  0.0000E+00
    -15.949  0.0000E+00  0.0000E+00  0.0000E+00
    -15.868  0.0000E+00  0.0000E+00  0.0000E+00
    -15.786  0.0000E+00  0.0000E+00  0.0000E+00
    -15.705  0.0000E+00  0.0000E+00  0.0000E+00
    -15.624  0.0000E+00  0.0000E+00  0.0000E+00
    -15.543  0.0000E+00  0.0000E+00  0.0000E+00
    -15.462  0.0000E+00  0.0000E+00  0.0000E+00
    -15.380  0.0000E+00  0.0000E+00  0.0000E+00
    -15.299  0.0000E+00  0.0000E+00  0.0000E+00
    -15.218  0.0000E+00  0.0000E+00  0.0000E+00
    -15.137  0.0000E+00  0.0000E+00  0.0000E+00
    -15.055  0.0000E+00  0.0000E+00  0.0000E+00
    -14.974  0.0000E+00  0.0000E+00  0.0000E+00
    -14.893  0.0000E+00  0.0000E+00  0.0000E+00
    -14.812  0.0000E+00  0.0000E+00  0.0000E+00
    -14.731  0.0000E+00  0.0000E+00  0.0000E+00
    -14.649  0.0000E+00  0.0000E+00  0.0000E+00
    -14.568  0.0000E+00  0.0000E+00  0.0000E+00
    -14.487  0.0000E+00  0.0000E+00  0.0000E+00
    -14.406  0.0000E+00  0.0000E+00  0.0000E+00
    -14.325  0.0000E+00  0.0000E+00  0.0000E+00
    -14.243  0.0000E+00  0.0000E+00  0.0000E+00
    -14.162  0.0000E+00  0.0000E+00  0.0000E+00
    -14.081  0.0000E+00  0.0000E+00  0.0000E+00
    -14.000  0.0000E+00  0.0000E+00  0.0000E+00
    -13.918  0.0000E+00  0.0000E+00  0.0000E+00
    -13.837  0.0000E+00  0.0000E+00  0.0000E+00
    -13.756  0.0000E+00  0.0000E+00  0.0000E+00
    -13.675  0.0000E+00  0.0000E+00  0.0000E+00
    -13.594  0.0000E+00  0.0000E+00  0.0000E+00
    -13.512  0.0000E+00  0.0000E+00  0.0000E+00
    -13.431  0.0000E+00  0.0000E+00  0.0000E+00
    -13.350  0.0000E+00  0.0000E+00  0.0000E+00
    -13.269  0.0000E+00  0.0000E+00  0.0000E+00
    -13.188  0.0000E+00  0.0000E+00  0.0000E+00
    -13.106  0.0000E+00  0.0000E+00  0.0000E+00
    -13.025  0.0000E+00  0.0000E+00  0.0000E+00
    -12.944  0.0000E+00  0.0000E+00  0.0000E+00
    -12.863  0.0000E+00  0.0000E+00  0.0000E+00
    -12.781  0.0000E+00  0.0000E+00  0.0000E+00
    -12.700  0.0000E+00  0.0000E+00  0.0000E+00
    -12.619  0.0000E+00  0.0000E+00  0.0000E+00
    -12.538  0.0000E+00  0.0000E+00  0.0000E+00
    -12.457  0.0000E+00  0.0000E+00  0.0000E+00
    -12.375  0.0000E+00  0.0000E+00  0.0000E+00
    -12.294  0.0000E+00  0.0000E+00  0.0000E+00
    -12.213  0.0000E+00  0.0000E+00  0.0000E+00
    -12.132  0.0000E+00  0.0000E+00  0.0000E+00
    -12.051  0.0000E+00  0.0000E+00  0.0000E+00
    -11.969  0.0000E+00  0.0000E+00  0.0000E+00
    -11.888  0.0000E+00  0.0000E+00  0.0000E+00
    -11.807  0.0000E+00  0.0000E+00  0.0000E+00
    -11.726  0.0000E+00  0.0000E+00  0.0000E+00
    -11.644  0.0000E+00  0.0000E+00  0.0000E+00
    -11.563  0.0000E+00  0.0000E+00  0.0000E+00
    -11.482  0.0000E+00  0.0000E+00  0.0000E+00
    -11.401  0.0000E+00  0.0000E+00  0.0000E+00
    -11.320  0.0000E+00  0.0000E+00  0.0000E+00
    -11.238  0.0000E+00  0.0000E+00  0.0000E+00
    -11.157  0.0000E+00  0.0000E+00  0.0000E+00
    -11.076  0.0000E+00  0.0000E+00  0.0000E+00
    -10.995  0.0000E+00  0.0000E+00  0.0000E+00
    -10.914  0.0000E+00  0.0000E+00  0.0000E+00
    -10.832  0.0000E+00  0.0000E+00  0.0000E+00
    -10.751  0.0000E+00  0.0000E+00  0.0000E+00
    -10.670  0.0000E+00  0.0000E+00  0.0000E+00
    -10.589  0.0000E+00  0.0000E+00  0.0000E+00
    -10.507  0.0000E+00  0.0000E+00  0.0000E+00
    -10.426  0.0000E+00  0.0000E+00  0.0000E+00
    -10.345  0.0000E+00  0.0000E+00  0.0000E+00
    -10.264  0.0000E+00  0.0000E+00  0.0000E+00
    -10.183  0.0000E+00  0.0000E+00  0.0000E+00
    -10.101  0.0000E+00  0.0000E+00  0.0000E+00
    -10.020  0.0000E+00  0.0000E+00  0.0000E+00
     -9.939  0.0000E+00  0.0000E+00  0.0000E+00
     -9.858  0.0000E+00  0.0000E+00  0.0000E+00
     -9.777  0.0000E+00  0.0000E+00  0.0000E+00
     -9.695  0.0000E+00  0.0000E+00  0.0000E+00
     -9.614  0.0000E+00  0.0000E+00  0.0000E+00
     -9.533  0.2071E-15  0.2645E-16  0.6769E-19
     -9.452  0.1693E-13  0.2162E-14  0.5532E-17
     -9.370  0.1019E-11  0.1301E-12  0.3330E-15
     -9.289  0.4431E-10  0.5659E-11  0.1448E-13
     -9.208  0.1393E-08  0.1779E-09  0.4553E-12
     -9.127  0.3166E-07  0.4043E-08  0.1035E-10
     -9.046  0.5205E-06  0.6647E-07  0.1701E-09
     -8.964  0.6194E-05  0.7911E-06  0.2025E-08
     -8.883  0.5337E-04  0.6816E-05  0.1745E-07
     -8.802  0.3332E-03  0.4255E-04  0.1089E-06
     -8.721  0.1507E-02  0.1925E-03  0.4926E-06
     -8.640  0.4943E-02  0.6312E-03  0.1616E-05
     -8.558  0.1176E-01  0.1501E-02  0.3843E-05
     -8.477  0.2028E-01  0.2590E-02  0.6630E-05
     -8.396  0.2539E-01  0.3242E-02  0.8298E-05
     -8.315  0.2305E-01  0.2944E-02  0.7536E-05
     -8.233  0.1519E-01  0.1940E-02  0.4965E-05
     -8.152  0.7260E-02  0.9272E-03  0.2373E-05
     -8.071  0.2517E-02  0.3214E-03  0.8227E-06
     -7.990  0.6326E-03  0.8079E-04  0.2068E-06
     -7.909  0.1153E-03  0.1472E-04  0.3798E-07
     -7.827  0.1543E-04  0.1953E-05  0.1120E-07
     -7.746  0.4534E-05  0.3356E-06  0.9141E-07
     -7.665  0.3263E-04  0.1596E-05  0.9605E-06
     -7.584  0.2488E-03  0.1211E-04  0.7348E-05
     -7.503  0.1379E-02  0.6712E-04  0.4073E-04
     -7.421  0.5539E-02  0.2698E-03  0.1638E-03
     -7.340  0.1613E-01  0.7873E-03  0.4788E-03
     -7.259  0.3409E-01  0.1674E-02  0.1024E-02
     -7.178  0.5228E-01  0.2629E-02  0.1637E-02
     -7.096  0.5838E-01  0.3189E-02  0.2096E-02
     -7.015  0.4817E-01  0.3442E-02  0.2536E-02
     -6.934  0.3199E-01  0.4287E-02  0.3465E-02
     -6.853  0.2437E-01  0.6656E-02  0.5068E-02
     -6.772  0.3180E-01  0.1052E-01  0.6698E-02
     -6.690  0.4960E-01  0.1454E-01  0.7375E-02
     -6.609  0.6501E-01  0.1663E-01  0.6777E-02
     -6.528  0.6679E-01  0.1573E-01  0.5693E-02
     -6.447  0.5714E-01  0.1355E-01  0.5647E-02
     -6.366  0.4967E-01  0.1384E-01  0.8061E-02
     -6.284  0.5255E-01  0.1921E-01  0.1327E-01
     -6.203  0.6017E-01  0.2839E-01  0.1974E-01
     -6.122  0.6334E-01  0.3616E-01  0.2418E-01
     -6.041  0.6170E-01  0.3724E-01  0.2388E-01
     -5.959  0.6173E-01  0.3140E-01  0.1939E-01
     -5.878  0.6482E-01  0.2327E-01  0.1394E-01
     -5.797  0.6343E-01  0.1673E-01  0.9913E-02
     -5.716  0.5248E-01  0.1221E-01  0.7292E-02
     -5.635  0.3969E-01  0.9178E-02  0.5700E-02
     -5.553  0.4017E-01  0.8283E-02  0.6538E-02
     -5.472  0.6493E-01  0.1013E-01  0.1312E-01
     -5.391  0.1152E+00  0.1430E-01  0.2842E-01
     -5.310  0.1790E+00  0.2104E-01  0.5022E-01
     -5.229  0.2284E+00  0.3232E-01  0.6818E-01
     -5.147  0.2333E+00  0.4783E-01  0.7107E-01
     -5.066  0.1890E+00  0.6044E-01  0.5834E-01
     -4.985  0.1218E+00  0.6037E-01  0.4005E-01
     -4.904  0.6410E-01  0.4622E-01  0.2686E-01
     -4.822  0.3036E-01  0.2754E-01  0.2484E-01
     -4.741  0.1702E-01  0.1483E-01  0.3738E-01
     -4.660  0.1423E-01  0.1121E-01  0.6536E-01
     -4.579  0.1454E-01  0.1356E-01  0.1015E+00
     -4.498  0.1636E-01  0.1726E-01  0.1297E+00
     -4.416  0.2504E-01  0.1996E-01  0.1437E+00
     -4.335  0.5013E-01  0.2354E-01  0.1647E+00
     -4.254  0.9630E-01  0.3175E-01  0.2243E+00
     -4.173  0.1546E+00  0.4674E-01  0.3312E+00
     -4.092  0.2064E+00  0.6941E-01  0.4741E+00
     -4.010  0.2376E+00  0.9911E-01  0.6452E+00
     -3.929  0.2449E+00  0.1282E+00  0.8194E+00
     -3.848  0.2309E+00  0.1423E+00  0.9219E+00
     -3.767  0.2014E+00  0.1318E+00  0.8774E+00
     -3.685  0.1620E+00  0.1020E+00  0.7077E+00
     -3.604  0.1181E+00  0.6893E-01  0.5341E+00
     -3.523  0.7827E-01  0.4702E-01  0.4752E+00
     -3.442  0.5116E-01  0.4053E-01  0.5546E+00
     -3.361  0.3759E-01  0.4355E-01  0.6903E+00
     -3.279  0.3153E-01  0.4698E-01  0.7708E+00
     -3.198  0.2736E-01  0.4703E-01  0.7608E+00
     -3.117  0.2301E-01  0.4773E-01  0.7322E+00
     -3.036  0.1885E-01  0.5491E-01  0.7812E+00
     -2.955  0.1584E-01  0.6803E-01  0.9254E+00
     -2.873  0.1435E-01  0.7927E-01  0.1087E+01
     -2.792  0.1391E-01  0.8119E-01  0.1173E+01
     -2.711  0.1451E-01  0.7447E-01  0.1169E+01
     -2.630  0.1671E-01  0.6639E-01  0.1146E+01
     -2.548  0.2022E-01  0.6253E-01  0.1163E+01
     -2.467  0.2344E-01  0.6246E-01  0.1198E+01
     -2.386  0.2551E-01  0.6529E-01  0.1189E+01
     -2.305  0.2802E-01  0.7704E-01  0.1155E+01
     -2.224  0.3412E-01  0.1073E+00  0.1208E+01
     -2.142  0.4721E-01  0.1550E+00  0.1450E+01
     -2.061  0.6911E-01  0.1993E+00  0.1867E+01
     -1.980  0.9592E-01  0.2141E+00  0.2347E+01
     -1.899  0.1166E+00  0.1931E+00  0.2787E+01
     -1.818  0.1208E+00  0.1538E+00  0.3150E+01
     -1.736  0.1080E+00  0.1168E+00  0.3389E+01
     -1.655  0.8601E-01  0.8911E-01  0.3406E+01
     -1.574  0.6250E-01  0.6869E-01  0.3141E+01
     -1.493  0.4185E-01  0.5303E-01  0.2658E+01
     -1.411  0.2699E-01  0.4142E-01  0.2142E+01
     -1.330  0.1914E-01  0.3327E-01  0.1781E+01
     -1.249  0.1706E-01  0.2771E-01  0.1642E+01
     -1.168  0.1767E-01  0.2405E-01  0.1656E+01
     -1.087  0.1781E-01  0.2210E-01  0.1730E+01
     -1.005  0.1626E-01  0.2202E-01  0.1842E+01
     -0.924  0.1436E-01  0.2429E-01  0.2032E+01
     -0.843  0.1410E-01  0.2977E-01  0.2339E+01
     -0.762  0.1606E-01  0.3947E-01  0.2748E+01
     -0.681  0.1936E-01  0.5369E-01  0.3164E+01
     -0.599  0.2288E-01  0.7057E-01  0.3447E+01
     -0.518  0.2552E-01  0.8608E-01  0.3480E+01
     -0.437  0.2595E-01  0.9619E-01  0.3245E+01
     -0.356  0.2342E-01  0.9883E-01  0.2840E+01
     -0.274  0.1906E-01  0.9374E-01  0.2454E+01
     -0.193  0.1506E-01  0.8285E-01  0.2255E+01
     -0.112  0.1259E-01  0.7088E-01  0.2258E+01
     -0.031  0.1159E-01  0.6281E-01  0.2345E+01
      0.050  0.1221E-01  0.5998E-01  0.2387E+01
      0.132  0.1541E-01  0.5957E-01  0.2296E+01
      0.213  0.2192E-01  0.5804E-01  0.2027E+01
      0.294  0.2988E-01  0.5359E-01  0.1619E+01
      0.375  0.3407E-01  0.4542E-01  0.1172E+01
      0.456  0.3016E-01  0.3344E-01  0.7663E+00
      0.538  0.2002E-01  0.2008E-01  0.4366E+00
      0.619  0.9809E-02  0.9373E-02  0.2049E+00
      0.700  0.3520E-02  0.3301E-02  0.7541E-01
      0.781  0.9212E-03  0.8636E-03  0.2107E-01
      0.863  0.1754E-03  0.1664E-03  0.4389E-02
      0.944  0.2427E-04  0.2350E-04  0.6746E-03
      1.025  0.2437E-05  0.2428E-05  0.7607E-04
      1.106  0.1774E-06  0.1832E-06  0.6269E-05
      1.187  0.9353E-08  0.1008E-07  0.3766E-06
      1.269  0.3571E-09  0.4043E-09  0.1646E-07
      1.350  0.9864E-11  0.1182E-10  0.5228E-09
      1.431  0.1970E-12  0.2515E-12  0.1205E-10
      1.512  0.2845E-14  0.3896E-14  0.2012E-12
      1.593  0.3258E-16  0.4486E-16  0.2483E-14
      1.675  0.0000E+00  0.0000E+00  0.0000E+00
      1.756  0.0000E+00  0.0000E+00  0.0000E+00
      1.837  0.0000E+00  0.0000E+00  0.0000E+00
      1.918  0.0000E+00  0.0000E+00  0.0000E+00
      2.000  0.0000E+00  0.0000E+00  0.0000E+00
      2.081  0.0000E+00  0.0000E+00  0.0000E+00
      2.162  0.0000E+00  0.0000E+00  0.0000E+00
      2.243  0.0000E+00  0.0000E+00  0.0000E+00
      2.324  0.0000E+00  0.0000E+00  0.0000E+00
      2.406  0.0000E+00  0.0000E+00  0.0000E+00
      2.40558247    -21.95866351  301     -0.47249878      1.00000000
    -21.959  0.0000E+00  0.0000E+00  0.0000E+00
    -21.877  0.0000E+00  0.0000E+00  0.0000E+00
    -21.796  0.0000E+00  0.0000E+00  0.0000E+00
    -21.715  0.0000E+00  0.0000E+00  0.0000E+00
    -21.634  0.0000E+00  0.0000E+00  0.0000E+00
    -21.553  0.0000E+00  0.0000E+00  0.0000E+00
    -21.471  0.0000E+00  0.0000E+00  0.0000E+00
    -21.390  0.0000E+00  0.0000E+00  0.0000E+00
    -21.309  0.0000E+00  0.0000E+00  0.0000E+00
    -21.228  0.0000E+00  0.0000E+00  0.0000E+00
    -21.147  0.0000E+00  0.0000E+00  0.0000E+00
    -21.065  0.2234E-17  0.6360E-18  0.3979E-18
    -20.984  0.1788E-15  0.5092E-16  0.3186E-16
    -20.903  0.1051E-13  0.2996E-14  0.1874E-14
    -20.822  0.4465E-12  0.1273E-12  0.7965E-13
    -20.740  0.1370E-10  0.3912E-11  0.2448E-11
    -20.659  0.3042E-09  0.8703E-10  0.5448E-10
    -20.578  0.4885E-08  0.1404E-08  0.8792E-09
    -20.497  0.5678E-07  0.1646E-07  0.1032E-07
    -20.416  0.4780E-06  0.1409E-06  0.8845E-07
    -20.334  0.2917E-05  0.8865E-06  0.5584E-06
    -20.253  0.1291E-04  0.4154E-05  0.2631E-05
    -20.172  0.4152E-04  0.1479E-04  0.9454E-05
    -20.091  0.9740E-04  0.4129E-04  0.2675E-04
    -20.010  0.1687E-03  0.9408E-04  0.6203E-04
    -19.928  0.2254E-03  0.1836E-03  0.1234E-03
    -19.847  0.2665E-03  0.3223E-03  0.2201E-03
    -19.766  0.3552E-03  0.5237E-03  0.3614E-03
    -19.685  0.5510E-03  0.7726E-03  0.5359E-03
    -19.603  0.7879E-03  0.9726E-03  0.6754E-03
    -19.522  0.8850E-03  0.9789E-03  0.6795E-03
    -19.441  0.7403E-03  0.7539E-03  0.5227E-03
    -19.360  0.4543E-03  0.4340E-03  0.3006E-03
    -19.279  0.2036E-03  0.1846E-03  0.1277E-03
    -19.197  0.6651E-04  0.5769E-04  0.3985E-04
    -19.116  0.1582E-04  0.1320E-04  0.9109E-05
    -19.035  0.2735E-05  0.2208E-05  0.1522E-05
    -18.954  0.3436E-06  0.2696E-06  0.1857E-06
    -18.873  0.3133E-07  0.2399E-07  0.1650E-07
    -18.791  0.2072E-08  0.1553E-08  0.1068E-08
    -18.710  0.9930E-10  0.7313E-10  0.5025E-10
    -18.629  0.3446E-11  0.2500E-11  0.1717E-11
    -18.548  0.8655E-13  0.6201E-13  0.4256E-13
    -18.466  0.1572E-14  0.1115E-14  0.7648E-15
    -18.385  0.2082E-16  0.1473E-16  0.1011E-16
    -18.304  0.0000E+00  0.0000E+00  0.0000E+00
    -18.223  0.0000E+00  0.0000E+00  0.0000E+00
    -18.142  0.0000E+00  0.0000E+00  0.0000E+00
    -18.060  0.0000E+00  0.0000E+00  0.0000E+00
    -17.979  0.0000E+00  0.0000E+00  0.0000E+00
    -17.898  0.0000E+00  0.0000E+00  0.0000E+00
    -17.817  0.0000E+00  0.0000E+00  0.0000E+00
    -17.736  0.0000E+00  0.0000E+00  0.0000E+00
    -17.654  0.0000E+00  0.0000E+00  0.0000E+00
    -17.573  0.0000E+00  0.0000E+00  0.0000E+00
    -17.492  0.0000E+00  0.0000E+00  0.0000E+00
    -17.411  0.0000E+00  0.0000E+00  0.0000E+00
    -17.329  0.0000E+00  0.0000E+00  0.0000E+00
    -17.248  0.0000E+00  0.0000E+00  0.0000E+00
    -17.167  0.0000E+00  0.0000E+00  0.0000E+00
    -17.086  0.0000E+00  0.0000E+00  0.0000E+00
    -17.005  0.0000E+00  0.0000E+00  0.0000E+00
    -16.923  0.0000E+00  0.0000E+00  0.0000E+00
    -16.842  0.0000E+00  0.0000E+00  0.0000E+00
    -16.761  0.0000E+00  0.0000E+00  0.0000E+00
    -16.680  0.0000E+00  0.0000E+00  0.0000E+00
    -16.599  0.0000E+00  0.0000E+00  0.0000E+00
    -16.517  0.0000E+00  0.0000E+00  0.0000E+00
    -16.436  0.0000E+00  0.0000E+00  0.0000E+00
    -16.355  0.0000E+00  0.0000E+00  0.0000E+00
    -16.274  0.0000E+00  0.0000E+00  0.0000E+00
    -16.192  0.0000E+00  0.0000E+00  0.0000E+00
    -16.111  0.0000E+00  0.0000E+00  0.0000E+00
    -16.030  0.0000E+00  0.0000E+00  0.0000E+00
    -15.949  0.0000E+00  0.0000E+00  0.0000E+00
    -15.868  0.0000E+00  0.0000E+00  0.0000E+00
    -15.786  0.0000E+00  0.0000E+00  0.0000E+00
    -15.705  0.0000E+00  0.0000E+00  0.0000E+00
    -15.624  0.0000E+00  0.0000E+00  0.0000E+00
    -15.543  0.0000E+00  0.0000E+00  0.0000E+00
    -15.462  0.0000E+00  0.0000E+00  0.0000E+00
    -15.380  0.0000E+00  0.0000E+00  0.0000E+00
    -15.299  0.0000E+00  0.0000E+00  0.0000E+00
    -15.218  0.0000E+00  0.0000E+00  0.0000E+00
    -15.137  0.0000E+00  0.0000E+00  0.0000E+00
    -15.055  0.0000E+00  0.0000E+00  0.0000E+00
    -14.974  0.0000E+00  0.0000E+00  0.0000E+00
    -14.893  0.0000E+00  0.0000E+00  0.0000E+00
    -14.812  0.0000E+00  0.0000E+00  0.0000E+00
    -14.731  0.0000E+00  0.0000E+00  0.0000E+00