       N       E                     dE             d eps       ncg     rms          rms(c)
DAV:   1     0.544193020356E+04    0.54419E+04   -0.28356E+05   690   0.196E+03
DAV:   2     0.179477469544E+03   -0.52625E+04   -0.51467E+04   690   0.436E+02
DAV:   3    -0.362777239034E+03   -0.54225E+03   -0.48429E+03   723   0.183E+02
DAV:   4    -0.472226936298E+03   -0.10945E+03   -0.10291E+03  1362   0.530E+01
DAV:   5    -0.485191743909E+03   -0.12965E+02   -0.12383E+02  1164   0.182E+01    0.334E+01
RMM:   6    -0.850284319765E+03   -0.36509E+03   -0.53994E+02   889   0.538E+01    0.175E+02
RMM:   7    -0.560816321356E+03    0.28947E+03   -0.20286E+02   691   0.472E+01    0.110E+02
RMM:   8    -0.495403500795E+03    0.65413E+02   -0.66145E+01   694   0.237E+01    0.573E+01
RMM:   9    -0.483834846605E+03    0.11569E+02   -0.24136E+01   938   0.840E+00    0.231E+01
RMM:  10    -0.485629449605E+03   -0.17946E+01   -0.11373E+01   749   0.791E+00    0.333E+01
RMM:  11    -0.487276974931E+03   -0.16475E+01   -0.14464E+01   742   0.941E+00    0.339E+01
RMM:  12    -0.491247967959E+03   -0.39710E+01   -0.20743E+01   704   0.124E+01    0.430E+01
RMM:  13    -0.491783603700E+03   -0.53564E+00   -0.17967E+01   696   0.122E+01    0.461E+01
RMM:  14    -0.485323219541E+03    0.64604E+01   -0.81008E+00   694   0.886E+00    0.272E+01
RMM:  15    -0.483124855045E+03    0.21984E+01   -0.36509E+00   697   0.572E+00    0.146E+01
RMM:  16    -0.483107657945E+03    0.17197E-01   -0.22138E+00   738   0.369E+00    0.143E+01
RMM:  17    -0.482914049807E+03    0.19361E+00   -0.11729E+00   724   0.311E+00    0.116E+01
RMM:  18    -0.482615783453E+03    0.29827E+00   -0.61222E-01   745   0.210E+00    0.772E+00
RMM:  19    -0.482724559748E+03   -0.10878E+00   -0.51809E-01   751   0.176E+00    0.984E+00
RMM:  20    -0.482784274622E+03   -0.59715E-01   -0.44930E-01   746   0.168E+00    0.104E+01
RMM:  21    -0.482572202428E+03    0.21207E+00   -0.16489E-01   742   0.115E+00    0.677E+00
RMM:  22    -0.482560462695E+03    0.11740E-01   -0.13020E-01   788   0.808E-01    0.673E+00
RMM:  23    -0.482512933863E+03    0.47529E-01   -0.10005E-01   741   0.792E-01    0.525E+00
RMM:  24    -0.482468569007E+03    0.44365E-01   -0.80411E-02   770   0.659E-01    0.347E+00
RMM:  25    -0.482453030574E+03    0.15538E-01   -0.69696E-02   780   0.593E-01    0.273E+00
RMM:  26    -0.482467360302E+03   -0.14330E-01   -0.73877E-02   749   0.657E-01    0.323E+00
RMM:  27    -0.482447180898E+03    0.20179E-01   -0.49399E-02   725   0.594E-01    0.208E+00
RMM:  28    -0.482442755079E+03    0.44258E-02   -0.34209E-02   766   0.443E-01    0.191E+00
RMM:  29    -0.482439754548E+03    0.30005E-02   -0.21560E-02   810   0.299E-01    0.137E+00
RMM:  30    -0.482441527548E+03   -0.17730E-02   -0.19222E-02   770   0.324E-01    0.150E+00
RMM:  31    -0.482435242418E+03    0.62851E-02   -0.89505E-03   744   0.245E-01    0.611E-01
RMM:  32    -0.482435842014E+03   -0.59960E-03   -0.76509E-03   861   0.161E-01    0.651E-01
RMM:  33    -0.482435843696E+03   -0.16821E-05   -0.47482E-03   792   0.151E-01    0.539E-01
RMM:  34    -0.482435132106E+03    0.71159E-03   -0.26087E-03   775   0.121E-01    0.351E-01
RMM:  35    -0.482434936292E+03    0.19581E-03   -0.15044E-03   835   0.735E-02    0.220E-01
RMM:  36    -0.482435197170E+03   -0.26088E-03   -0.11550E-03   818   0.680E-02    0.312E-01
RMM:  37    -0.482434969491E+03    0.22768E-03   -0.59217E-04   756   0.593E-02    0.155E-01
RMM:  38    -0.482434935867E+03    0.33624E-04   -0.38438E-04   800   0.417E-02    0.111E-01
RMM:  39    -0.482434996758E+03   -0.60891E-04   -0.31156E-04   821   0.334E-02    0.151E-01
RMM:  40    -0.482434985295E+03    0.11463E-04   -0.17160E-04   753   0.313E-02    0.115E-01
RMM:  41    -0.482434957629E+03    0.27666E-04   -0.83334E-05   747   0.221E-02    0.676E-02
RMM:  42    -0.482434966897E+03   -0.92680E-05   -0.75774E-05   795   0.165E-02    0.624E-02
RMM:  43    -0.482434978021E+03   -0.11124E-04   -0.62870E-05   770   0.163E-02    0.603E-02
RMM:  44    -0.482434974482E+03    0.35395E-05   -0.35340E-05   749   0.122E-02    0.310E-02
RMM:  45    -0.482434977482E+03   -0.30003E-05   -0.25657E-05   776   0.782E-03    0.272E-02
RMM:  46    -0.482434985346E+03   -0.78639E-05   -0.18084E-05   713   0.726E-03    0.242E-02
RMM:  47    -0.482434989204E+03   -0.38582E-05   -0.11890E-05   549   0.636E-03    0.171E-02
RMM:  48    -0.482434991807E+03   -0.26030E-05   -0.83741E-06   463   0.438E-03    0.139E-02
RMM:  49    -0.482434996382E+03   -0.45753E-05   -0.72307E-06   453   0.403E-03    0.124E-02
RMM:  50    -0.482435000215E+03   -0.38333E-05   -0.60186E-06   438   0.383E-03    0.649E-03
RMM:  51    -0.482435002252E+03   -0.20364E-05   -0.49193E-06   424   0.248E-03    0.697E-03
RMM:  52    -0.482435006052E+03   -0.38006E-05   -0.44441E-06   421   0.269E-03    0.740E-03
RMM:  53    -0.482435009454E+03   -0.34019E-05   -0.39027E-06   417   0.245E-03    0.377E-03
RMM:  54    -0.482435011024E+03   -0.15692E-05   -0.32739E-06   408   0.157E-03    0.367E-03
RMM:  55    -0.482435014853E+03   -0.38298E-05   -0.30311E-06   406   0.172E-03    0.386E-03
RMM:  56    -0.482435016570E+03   -0.17164E-05   -0.26808E-06   398   0.177E-03    0.608E-03
RMM:  57    -0.482435018122E+03   -0.15522E-05   -0.23404E-06   393   0.158E-03    0.278E-03
RMM:  58    -0.482435020868E+03   -0.27458E-05   -0.21087E-06   389   0.112E-03    0.297E-03
RMM:  59    -0.482435022479E+03   -0.16114E-05   -0.18554E-06   381   0.125E-03    0.255E-03
RMM:  60    -0.482435025003E+03   -0.25240E-05   -0.17051E-06   388   0.105E-03    0.263E-03
RMM:  61    -0.482435026047E+03   -0.10434E-05   -0.14790E-06   376   0.110E-03    0.168E-03
RMM:  62    -0.482435027341E+03   -0.12945E-05   -0.13065E-06   371   0.801E-04    0.179E-03
RMM:  63    -0.482435029078E+03   -0.17368E-05   -0.11815E-06   359   0.839E-04    0.171E-03
RMM:  64    -0.482435030208E+03   -0.11297E-05   -0.10476E-06   326   0.715E-04    0.131E-03
RMM:  65    -0.482435030848E+03   -0.64053E-06   -0.91729E-07   259   0.609E-04
   1 F= -.49717148E+03 E0= -.49552088E+03  d E =-.330119E+01
       N       E                     dE             d eps       ncg     rms          rms(c)
DAV:   1    -0.482431673741E+03    0.33565E-02   -0.12332E+00   723   0.151E+00    0.190E-01
RMM:   2    -0.482435969603E+03   -0.42959E-02   -0.35136E-02   702   0.371E-01    0.507E-01
RMM:   3    -0.482435033482E+03    0.93612E-03   -0.33431E-03   720   0.141E-01    0.314E-01
RMM:   4    -0.482435296244E+03   -0.26276E-03   -0.13768E-03   780   0.841E-02    0.431E-01
RMM:   5    -0.482435781130E+03   -0.48489E-03   -0.11439E-03   715   0.878E-02    0.574E-01
RMM:   6    -0.482435429912E+03    0.35122E-03   -0.65439E-04   699   0.736E-02    0.466E-01
RMM:   7    -0.482435126630E+03    0.30328E-03   -0.62747E-04   698   0.682E-02    0.327E-01
RMM:   8    -0.482436126436E+03   -0.99981E-03   -0.18608E-03   698   0.111E-01    0.619E-01
RMM:   9    -0.482435626182E+03    0.50025E-03   -0.15818E-03   694   0.115E-01    0.474E-01
RMM:  10    -0.482434969892E+03    0.65629E-03   -0.79327E-04   694   0.893E-02    0.226E-01
RMM:  11    -0.482434815107E+03    0.15479E-03   -0.29986E-04   695   0.468E-02    0.104E-01
RMM:  12    -0.482434831747E+03   -0.16640E-04   -0.18584E-04   749   0.322E-02    0.120E-01
RMM:  13    -0.482434812049E+03    0.19698E-04   -0.98222E-05   719   0.259E-02    0.959E-02
RMM:  14    -0.482434783170E+03    0.28879E-04   -0.43151E-05   722   0.175E-02    0.355E-02
RMM:  15    -0.482434783496E+03   -0.32667E-06   -0.28533E-05   870   0.923E-03    0.311E-02
RMM:  16    -0.482434785400E+03   -0.19041E-05   -0.15254E-05   742   0.918E-03    0.368E-02
RMM:  17    -0.482434783881E+03    0.15190E-05   -0.10560E-05   704   0.843E-03    0.338E-02
RMM:  18    -0.482434781190E+03    0.26919E-05   -0.46869E-06   517   0.634E-03    0.167E-02
RMM:  19    -0.482434782904E+03   -0.17149E-05   -0.51754E-06   565   0.608E-03    0.267E-02
RMM:  20    -0.482434781573E+03    0.13313E-05   -0.30219E-06   458   0.576E-03    0.154E-02
RMM:  21    -0.482434781076E+03    0.49685E-06   -0.13612E-06   402   0.393E-03
   2 F= -.49717123E+03 E0= -.49552089E+03  d E =-.330068E+01
       N       E                     dE             d eps       ncg     rms          rms(c)
DAV:   1    -0.482420054082E+03    0.14727E-01   -0.49159E+00   714   0.301E+00    0.390E-01
RMM:   2    -0.482438680781E+03   -0.18627E-01   -0.15312E-01   700   0.760E-01    0.104E+00
RMM:   3    -0.482434736296E+03    0.39445E-02   -0.14230E-02   709   0.300E-01    0.642E-01
RMM:   4    -0.482436049287E+03   -0.13130E-02   -0.63152E-03   770   0.185E-01    0.923E-01
RMM:   5    -0.482436398060E+03   -0.34877E-03   -0.47984E-03   700   0.187E-01    0.953E-01
RMM:   6    -0.482434812399E+03    0.15857E-02   -0.30549E-03   695   0.167E-01    0.634E-01
RMM:   7    -0.482436699497E+03   -0.18871E-02   -0.29015E-03   714   0.138E-01    0.999E-01
RMM:   8    -0.482440308896E+03   -0.36094E-02   -0.62410E-03   760   0.178E-01    0.141E+00
RMM:   9    -0.482436694302E+03    0.36146E-02   -0.56421E-03   697   0.212E-01    0.920E-01
RMM:  10    -0.482434469254E+03    0.22250E-02   -0.37680E-03   694   0.184E-01    0.510E-01
RMM:  11    -0.482434053744E+03    0.41551E-03   -0.21369E-03   696   0.124E-01    0.372E-01
RMM:  12    -0.482434134593E+03   -0.80849E-04   -0.14754E-03   716   0.101E-01    0.395E-01
RMM:  13    -0.482433647594E+03    0.48700E-03   -0.62180E-04   702   0.745E-02    0.178E-01
RMM:  14    -0.482433572873E+03    0.74721E-04   -0.26166E-04   789   0.355E-02    0.991E-02
RMM:  15    -0.482433569525E+03    0.33485E-05   -0.14509E-04   835   0.233E-02    0.848E-02
RMM:  16    -0.482433566199E+03    0.33259E-05   -0.82189E-05   769   0.214E-02    0.850E-02
RMM:  17    -0.482433545063E+03    0.21136E-04   -0.39413E-05   747   0.167E-02    0.476E-02
RMM:  18    -0.482433544457E+03    0.60644E-06   -0.26217E-05   771   0.117E-02    0.433E-02
RMM:  19    -0.482433555823E+03   -0.11366E-04   -0.33930E-05   728   0.147E-02    0.695E-02
RMM:  20    -0.482433539612E+03    0.16212E-04   -0.15451E-05   701   0.123E-02    0.228E-02
RMM:  21    -0.482433539666E+03   -0.54199E-07   -0.81015E-06   685   0.694E-03
   3 F= -.49716999E+03 E0= -.49551913E+03  d E =-.330172E+01
       N       E                     dE             d eps       ncg     rms          rms(c)
DAV:   1    -0.482436766710E+03   -0.32271E-02   -0.24734E+00   705   0.213E+00    0.291E-01
RMM:   2    -0.482452223230E+03   -0.15457E-01   -0.81388E-02   700   0.593E-01    0.158E+00
RMM:   3    -0.482444429456E+03    0.77938E-02   -0.86112E-03   697   0.259E-01    0.607E-01
RMM:   4    -0.482444376168E+03    0.53287E-04   -0.31558E-03   805   0.118E-01    0.672E-01
RMM:   5    -0.482444045597E+03    0.33057E-03   -0.13755E-03   748   0.877E-02    0.583E-01
RMM:   6    -0.482444048821E+03   -0.32237E-05   -0.11258E-03   709   0.890E-02    0.585E-01
RMM:   7    -0.482443691676E+03    0.35714E-03   -0.90876E-04   700   0.862E-02    0.440E-01
RMM:   8    -0.482445124308E+03   -0.14326E-02   -0.25241E-03   703   0.134E-01    0.748E-01
RMM:   9    -0.482445366889E+03   -0.24258E-03   -0.35580E-03   694   0.166E-01    0.764E-01
RMM:  10    -0.482444084009E+03    0.12829E-02   -0.23863E-03   695   0.152E-01    0.529E-01
RMM:  11    -0.482443581040E+03    0.50297E-03   -0.16267E-03   695   0.113E-01    0.367E-01
RMM:  12    -0.482443901167E+03   -0.32013E-03   -0.13844E-03   715   0.985E-02    0.470E-01
RMM:  13    -0.482443317349E+03    0.58382E-03   -0.64868E-04   702   0.767E-02    0.224E-01
RMM:  14    -0.482443148404E+03    0.16894E-03   -0.22246E-04   714   0.422E-02    0.732E-02
RMM:  15    -0.482443154921E+03   -0.65169E-05   -0.13584E-04   834   0.233E-02    0.807E-02
RMM:  16    -0.482443154710E+03    0.21071E-06   -0.74107E-05   748   0.205E-02    0.798E-02
RMM:  17    -0.482443137381E+03    0.17330E-04   -0.39902E-05   733   0.168E-02    0.485E-02
RMM:  18    -0.482443133202E+03    0.41782E-05   -0.22162E-05   751   0.114E-02    0.313E-02
RMM:  19    -0.482443144785E+03   -0.11582E-04   -0.28601E-05   735   0.130E-02    0.643E-02
RMM:  20    -0.482443133069E+03    0.11716E-04   -0.14151E-05   698   0.114E-02    0.298E-02
RMM:  21    -0.482443131241E+03    0.18278E-05   -0.62056E-06   602   0.676E-03    0.207E-02
RMM:  22    -0.482443131099E+03    0.14176E-06   -0.32992E-06   483   0.498E-03
   4 F= -.49717957E+03 E0= -.49552921E+03  d E =-.330073E+01
       N       E                     dE             d eps       ncg     rms          rms(c)
DAV:   1    -0.482407862053E+03    0.35269E-01   -0.49196E+00   696   0.300E+00    0.493E-01
RMM:   2    -0.482450614619E+03   -0.42753E-01   -0.20668E-01   701   0.908E-01    0.286E+00
RMM:   3    -0.482428588464E+03    0.22026E-01   -0.22099E-02   698   0.430E-01    0.101E+00
RMM:   4    -0.482431201157E+03   -0.26127E-02   -0.99703E-03   780   0.220E-01    0.152E+00
RMM:   5    -0.482428551219E+03    0.26499E-02   -0.58635E-03   705   0.197E-01    0.116E+00
RMM:   6    -0.482427198819E+03    0.13524E-02   -0.38996E-03   699   0.177E-01    0.971E-01
RMM:   7    -0.482425808576E+03    0.13902E-02   -0.23539E-03   696   0.144E-01    0.683E-01
RMM:   8    -0.482430312141E+03   -0.45036E-02   -0.73141E-03   698   0.227E-01    0.130E+00
RMM:   9    -0.482430990436E+03   -0.67830E-03   -0.97712E-03   694   0.275E-01    0.135E+00
RMM:  10    -0.482426877040E+03    0.41134E-02   -0.55758E-03   694   0.231E-01    0.825E-01
RMM:  11    -0.482425319406E+03    0.15576E-02   -0.36135E-03   695   0.170E-01    0.464E-01
RMM:  12    -0.482425769979E+03   -0.45057E-03   -0.26108E-03   711   0.134E-01    0.593E-01
RMM:  13    -0.482425054173E+03    0.71581E-03   -0.12976E-03   707   0.104E-01    0.392E-01
RMM:  14    -0.482424605116E+03    0.44906E-03   -0.54385E-04   715   0.657E-02    0.136E-01
RMM:  15    -0.482424617907E+03   -0.12791E-04   -0.38462E-04   799   0.418E-02    0.145E-01
RMM:  16    -0.482424600909E+03    0.16999E-04   -0.20879E-04   767   0.337E-02    0.123E-01
RMM:  17    -0.482424554972E+03    0.45937E-04   -0.98846E-05   765   0.249E-02    0.616E-02
RMM:  18    -0.482424549551E+03    0.54208E-05   -0.57212E-05   857   0.142E-02    0.418E-02
RMM:  19    -0.482424562521E+03   -0.12969E-04   -0.40519E-05   773   0.143E-02    0.713E-02
RMM:  20    -0.482424547377E+03    0.15144E-04   -0.19096E-05   723   0.126E-02    0.299E-02
RMM:  21    -0.482424548649E+03   -0.12724E-05   -0.13756E-05   734   0.952E-03    0.338E-02
RMM:  22    -0.482424551120E+03   -0.24710E-05   -0.13556E-05   711   0.961E-03    0.385E-02
RMM:  23    -0.482424550180E+03    0.94021E-06   -0.10222E-05   691   0.905E-03    0.347E-02
RMM:  24    -0.482424546681E+03    0.34992E-05   -0.47967E-06   548   0.680E-03    0.129E-02
RMM:  25    -0.482424547790E+03   -0.11091E-05   -0.33056E-06   485   0.512E-03    0.186E-02
RMM:  26    -0.482424547331E+03    0.45828E-06   -0.21709E-06   419   0.520E-03
   5 F= -.49716100E+03 E0= -.49551019E+03  d E =-.330161E+01
       N       E                     dE             d eps       ncg     rms          rms(c)
DAV:   1    -0.482424174798E+03    0.37299E-03   -0.24300E+00   690   0.214E+00    0.347E-01
RMM:   2    -0.482440681383E+03   -0.16507E-01   -0.10119E-01   718   0.601E-01    0.150E+00
RMM:   3    -0.482433869009E+03    0.68124E-02   -0.11174E-02   698   0.295E-01    0.719E-01
RMM:   4    -0.482434640831E+03   -0.77182E-03   -0.60360E-03   723   0.188E-01    0.897E-01
RMM:   5    -0.482434923637E+03   -0.28281E-03   -0.46531E-03   696   0.191E-01    0.918E-01
RMM:   6    -0.482433419311E+03    0.15043E-02   -0.31305E-03   696   0.169E-01    0.598E-01
RMM:   7    -0.482433646790E+03   -0.22748E-03   -0.16414E-03   744   0.982E-02    0.671E-01
RMM:   8    -0.482435421252E+03   -0.17745E-02   -0.27355E-03   729   0.129E-01    0.994E-01
RMM:   9    -0.482434124233E+03    0.12970E-02   -0.29263E-03   697   0.147E-01    0.713E-01
RMM:  10    -0.482432920936E+03    0.12033E-02   -0.21402E-03   695   0.141E-01    0.447E-01
RMM:  11    -0.482432542800E+03    0.37814E-03   -0.15272E-03   694   0.109E-01    0.298E-01
RMM:  12    -0.482432765146E+03   -0.22235E-03   -0.11890E-03   713   0.922E-02    0.395E-01
RMM:  13    -0.482432376983E+03    0.38816E-03   -0.50616E-04   702   0.673E-02    0.227E-01
RMM:  14    -0.482432223341E+03    0.15364E-03   -0.18327E-04   708   0.373E-02    0.718E-02
RMM:  15    -0.482432225443E+03   -0.21026E-05   -0.10645E-04   812   0.213E-02    0.716E-02
RMM:  16    -0.482432229244E+03   -0.38010E-05   -0.62805E-05   764   0.185E-02    0.737E-02
RMM:  17    -0.482432215064E+03    0.14180E-04   -0.33643E-05   741   0.152E-02    0.420E-02
RMM:  18    -0.482432211959E+03    0.31057E-05   -0.18461E-05   784   0.948E-03    0.219E-02
RMM:  19    -0.482432219095E+03   -0.71360E-05   -0.16600E-05   747   0.939E-03    0.459E-02
RMM:  20    -0.482432214504E+03    0.45912E-05   -0.74270E-06   619   0.810E-03    0.205E-02
RMM:  21    -0.482432214433E+03    0.70802E-07   -0.37584E-06   493   0.552E-03
   6 F= -.49716838E+03 E0= -.49551785E+03  d E =-.330105E+01
       N       E                     dE             d eps       ncg     rms          rms(c)
DAV:   1    -0.482418989875E+03    0.13225E-01   -0.48778E+00   690   0.307E+00    0.498E-01
RMM:   2    -0.482441329916E+03   -0.22340E-01   -0.18939E-01   817   0.735E-01    0.120E+00
RMM:   3    -0.482438618228E+03    0.27117E-02   -0.12900E-02   712   0.279E-01    0.114E+00
RMM:   4    -0.482441030042E+03   -0.24118E-02   -0.77167E-03   739   0.209E-01    0.146E+00
RMM:   5    -0.482441224307E+03   -0.19427E-03   -0.83205E-03   713   0.235E-01    0.146E+00
RMM:   6    -0.482438496876E+03    0.27274E-02   -0.83983E-03   697   0.267E-01    0.106E+00
RMM:   7    -0.482438389828E+03    0.10705E-03   -0.68886E-03   696   0.231E-01    0.990E-01
RMM:   8    -0.482445121635E+03   -0.67318E-02   -0.12467E-02   697   0.294E-01    0.180E+00
RMM:   9    -0.482437261451E+03    0.78602E-02   -0.67613E-03   694   0.258E-01    0.817E-01
RMM:  10    -0.482435969986E+03    0.12915E-02   -0.43017E-03   696   0.191E-01    0.606E-01
RMM:  11    -0.482436118834E+03   -0.14885E-03   -0.40830E-03   697   0.173E-01    0.601E-01
RMM:  12    -0.482435615438E+03    0.50340E-03   -0.21522E-03   701   0.135E-01    0.534E-01
RMM:  13    -0.482434817279E+03    0.79816E-03   -0.85476E-04   710   0.852E-02    0.207E-01
RMM:  14    -0.482434717565E+03    0.99714E-04   -0.38351E-04   748   0.482E-02    0.121E-01
RMM:  15    -0.482434762639E+03   -0.45074E-04   -0.27998E-04   761   0.390E-02    0.159E-01
RMM:  16    -0.482434703176E+03    0.59462E-04   -0.12869E-04   720   0.317E-02    0.103E-01
RMM:  17    -0.482434671761E+03    0.31415E-04   -0.65085E-05   743   0.207E-02    0.484E-02
RMM:  18    -0.482434677745E+03   -0.59840E-05   -0.48852E-05   794   0.152E-02    0.583E-02
RMM:  19    -0.482434686572E+03   -0.88268E-05   -0.43325E-05   745   0.165E-02    0.713E-02
RMM:  20    -0.482434672831E+03    0.13741E-04   -0.18911E-05   704   0.130E-02    0.281E-02
RMM:  21    -0.482434674972E+03   -0.21412E-05   -0.14530E-05   730   0.951E-03    0.312E-02
RMM:  22    -0.482434676763E+03   -0.17910E-05   -0.95246E-06   683   0.807E-03    0.275E-02
RMM:  23    -0.482434675916E+03    0.84781E-06   -0.46926E-06   529   0.646E-03
   7 F= -.49717141E+03 E0= -.49552074E+03  d E =-.330133E+01
