 vasp.5.4.4.18Apr17-6-g9f103f2a35 (build Dec 15 2018 21:27:54) gamma-only       
  
 executed on             LinuxIFC date 2022.03.06  04:56:07
 running on   72 total cores
 distrk:  each k-point on   72 cores,    1 groups
 distr:  one band on NCORES_PER_BAND=  24 cores,    3 groups


--------------------------------------------------------------------------------------------------------


 INCAR:
 POTCAR:    PAW_PBE Fe 06Sep2000                  
 POTCAR:    PAW_PBE Ni 02Aug2007                  
 POTCAR:    PAW_PBE O 08Apr2002                   

 ----------------------------------------------------------------------------- 
|                                                                             |
|           W    W    AA    RRRRR   N    N  II  N    N   GGGG   !!!           |
|           W    W   A  A   R    R  NN   N  II  NN   N  G    G  !!!           |
|           W    W  A    A  R    R  N N  N  II  N N  N  G       !!!           |
|           W WW W  AAAAAA  RRRRR   N  N N  II  N  N N  G  GGG   !            |
|           WW  WW  A    A  R   R   N   NN  II  N   NN  G    G                |
|           W    W  A    A  R    R  N    N  II  N    N   GGGG   !!!           |
|                                                                             |
|      For optimal performance we recommend to set                            |
|        NCORE= 4 - approx SQRT( number of cores)                             |
|      NCORE specifies how many cores store one orbital (NPAR=cpu/NCORE).     |
|      This setting can  greatly improve the performance of VASP for DFT.     |
|      The default,   NCORE=1            might be grossly inefficient         |
|      on modern multi-core architectures or massively parallel machines.     |
|      Do your own testing !!!!                                               |
|      Unfortunately you need to use the default for GW and RPA calculations. |
|      (for HF NCORE is supported but not extensively tested yet)             |
|                                                                             |
 ----------------------------------------------------------------------------- 

 POTCAR:    PAW_PBE Fe 06Sep2000                  
   VRHFIN =Fe:  d7 s1                                                           
   LEXCH  = PE                                                                  
   EATOM  =   594.3153 eV,   43.6809 Ry                                         
                                                                                
   TITEL  = PAW_PBE Fe 06Sep2000                                                
   LULTRA =        F    use ultrasoft PP ?                                      
   IUNSCR =        1    unscreen: 0-lin 1-nonlin 2-no                           
   RPACOR =    2.000    partial core radius                                     
   POMASS =   55.847; ZVAL   =    8.000    mass and valenz                      
   RCORE  =    2.300    outmost cutoff radius                                   
   RWIGS  =    2.460; RWIGS  =    1.302    wigner-seitz radius (au A)           
   ENMAX  =  267.882; ENMIN  =  200.911 eV                                      
   RCLOC  =    1.701    cutoff for local pot                                    
   LCOR   =        T    correct aug charges                                     
   LPAW   =        T    paw PP                                                  
   EAUG   =  511.368                                                            
   DEXC   =    0.000                                                            
   RMAX   =    2.356    core radius for proj-oper                               
   RAUG   =    1.300    factor for augmentation sphere                          
   RDEP   =    2.442    radius for radial grids                                 
   RDEPT  =    1.890    core radius for aug-charge                              
                                                                                
   Atomic configuration                                                         
    9 entries                                                                   
     n  l   j            E        occ.                                          
     1  0  0.50     -6993.8440   2.0000                                         
     2  0  0.50      -814.6047   2.0000                                         
     2  1  1.50      -693.3689   6.0000                                         
     3  0  0.50       -89.4732   2.0000                                         
     3  1  1.50       -55.6373   6.0000                                         
     3  2  2.50        -3.8151   7.0000                                         
     4  0  0.50        -4.2551   1.0000                                         
     4  1  1.50        -3.4015   0.0000                                         
     4  3  2.50        -1.3606   0.0000                                         
   Description                                                                  
     l       E           TYP  RCUT    TYP  RCUT                                 
     2     -3.8151135     23  2.300                                             
     2     -5.1756961     23  2.300                                             
     0     -4.2550963     23  2.300                                             
     0      7.2035603     23  2.300                                             
     1     -2.7211652     23  2.300                                             
     1     18.4316424     23  2.300                                             
  local pseudopotential read in
  partial core-charges read in
  partial kinetic energy density read in
  atomic valenz-charges read in
  non local Contribution for L=           2  read in
    real space projection operators read in
  non local Contribution for L=           2  read in
    real space projection operators read in
  non local Contribution for L=           0  read in
    real space projection operators read in
  non local Contribution for L=           0  read in
    real space projection operators read in
  non local Contribution for L=           1  read in
    real space projection operators read in
  non local Contribution for L=           1  read in
    real space projection operators read in
    PAW grid and wavefunctions read in
 
   number of l-projection  operators is LMAX  =           6
   number of lm-projection operators is LMMAX =          18
 
 POTCAR:    PAW_PBE Ni 02Aug2007                  
   VRHFIN =Ni:                                                                  
   LEXCH  = PE                                                                  
   EATOM  =  1077.6739 eV,   79.2068 Ry                                         
                                                                                
   TITEL  = PAW_PBE Ni 02Aug2007                                                
   LULTRA =        F    use ultrasoft PP ?                                      
   IUNSCR =        1    unscreen: 0-lin 1-nonlin 2-no                           
   RPACOR =    2.000    partial core radius                                     
   POMASS =   58.690; ZVAL   =   10.000    mass and valenz                      
   RCORE  =    2.300    outmost cutoff radius                                   
   RWIGS  =    2.430; RWIGS  =    1.286    wigner-seitz radius (au A)           
   ENMAX  =  269.532; ENMIN  =  202.149 eV                                      
   RCLOC  =    1.201    cutoff for local pot                                    
   LCOR   =        T    correct aug charges                                     
   LPAW   =        T    paw PP                                                  
   EAUG   =  544.565                                                            
   DEXC   =    0.000                                                            
   RMAX   =    2.357    core radius for proj-oper                               
   RAUG   =    1.300    factor for augmentation sphere                          
   RDEP   =    2.390    radius for radial grids                                 
   RDEPT  =    1.838    core radius for aug-charge                              
                                                                                
   Atomic configuration                                                         
    9 entries                                                                   
     n  l   j            E        occ.                                          
     1  0  0.50     -8206.4253   2.0000                                         
     2  0  0.50      -976.1748   2.0000                                         
     2  1  1.50      -839.0571   6.0000                                         
     3  0  0.50      -105.9991   2.0000                                         
     3  1  1.50       -66.4603   6.0000                                         
     3  2  2.50        -4.6458   9.0000                                         
     4  0  0.50        -4.4926   1.0000                                         
     4  1  1.50        -4.0817   0.0000                                         
     4  3  2.50        -1.3606   0.0000                                         
   Description                                                                  
     l       E           TYP  RCUT    TYP  RCUT                                 
     2     -4.6457903     23  2.300                                             
     2     -6.0063729     23  2.300                                             
     0     -4.4925590     23  2.300                                             
     0      5.0102601     23  2.300                                             
     1     -2.7211652     23  2.300                                             
     1     16.5183231     23  2.300                                             
  local pseudopotential read in
  partial core-charges read in
  partial kinetic energy density read in
  atomic valenz-charges read in
  non local Contribution for L=           2  read in
    real space projection operators read in
  non local Contribution for L=           2  read in
    real space projection operators read in
  non local Contribution for L=           0  read in
    real space projection operators read in
  non local Contribution for L=           0  read in
    real space projection operators read in
  non local Contribution for L=           1  read in
    real space projection operators read in
  non local Contribution for L=           1  read in
    real space projection operators read in
    PAW grid and wavefunctions read in
 
   number of l-projection  operators is LMAX  =           6
   number of lm-projection operators is LMMAX =          18
 
 POTCAR:    PAW_PBE O 08Apr2002                   
   VRHFIN =O: s2p4                                                              
   LEXCH  = PE                                                                  
   EATOM  =   432.3788 eV,   31.7789 Ry                                         
                                                                                
   TITEL  = PAW_PBE O 08Apr2002                                                 
   LULTRA =        F    use ultrasoft PP ?                                      
   IUNSCR =        1    unscreen: 0-lin 1-nonlin 2-no                           
   RPACOR =    1.200    partial core radius                                     
   POMASS =   16.000; ZVAL   =    6.000    mass and valenz                      
   RCORE  =    1.520    outmost cutoff radius                                   
   RWIGS  =    1.550; RWIGS  =    0.820    wigner-seitz radius (au A)           
   ENMAX  =  400.000; ENMIN  =  300.000 eV                                      
   ICORE  =        2    local potential                                         
   LCOR   =        T    correct aug charges                                     
   LPAW   =        T    paw PP                                                  
   EAUG   =  605.392                                                            
   DEXC   =    0.000                                                            
   RMAX   =    1.553    core radius for proj-oper                               
   RAUG   =    1.300    factor for augmentation sphere                          
   RDEP   =    1.550    radius for radial grids                                 
   RDEPT  =    1.329    core radius for aug-charge                              
                                                                                
   Atomic configuration                                                         
    4 entries                                                                   
     n  l   j            E        occ.                                          
     1  0  0.50      -514.6923   2.0000                                         
     2  0  0.50       -23.9615   2.0000                                         
     2  1  0.50        -9.0305   4.0000                                         
     3  2  1.50        -9.5241   0.0000                                         
   Description                                                                  
     l       E           TYP  RCUT    TYP  RCUT                                 
     0    -23.9615318     23  1.200                                             
     0     -9.5240782     23  1.200                                             
     1     -9.0304911     23  1.520                                             
     1      8.1634956     23  1.520                                             
     2     -9.5240782      7  1.500                                             
  local pseudopotential read in
  partial core-charges read in
  partial kinetic energy density read in
  kinetic energy density of atom read in
  atomic valenz-charges read in
  non local Contribution for L=           0  read in
    real space projection operators read in
  non local Contribution for L=           0  read in
    real space projection operators read in
  non local Contribution for L=           1  read in
    real space projection operators read in
  non local Contribution for L=           1  read in
    real space projection operators read in
    PAW grid and wavefunctions read in
 
   number of l-projection  operators is LMAX  =           4
   number of lm-projection operators is LMMAX =           8
 
 Optimization of the real space projectors (new method)

 maximal supplied QI-value         = 16.25
 optimisation between [QCUT,QGAM] = [ 11.54, 23.24] = [ 37.28,151.24] Ry 
 Optimized for a Real-space Cutoff    1.53 Angstroem

   l    n(q)    QCUT    max X(q) W(low)/X(q) W(high)/X(q)  e(spline) 
   2     10    11.539    80.901    0.11E-03    0.14E-03    0.21E-06
   2     10    11.539    75.754    0.11E-03    0.14E-03    0.22E-06
   0     11    11.539    58.752    0.52E-04    0.18E-04    0.33E-06
   0     11    11.539    30.679    0.44E-04    0.16E-04    0.30E-06
   1     10    11.539    17.977    0.53E-04    0.29E-04    0.13E-06
   1     10    11.539    13.559    0.44E-04    0.25E-04    0.11E-06
 Optimization of the real space projectors (new method)

 maximal supplied QI-value         = 16.25
 optimisation between [QCUT,QGAM] = [ 11.54, 23.24] = [ 37.28,151.24] Ry 
 Optimized for a Real-space Cutoff    1.45 Angstroem

   l    n(q)    QCUT    max X(q) W(low)/X(q) W(high)/X(q)  e(spline) 
   2      9    11.539    60.317    0.19E-03    0.47E-04    0.16E-06
   2      9    11.539    55.921    0.19E-03    0.48E-04    0.16E-06
   0     10    11.539    51.690    0.80E-04    0.50E-04    0.24E-06
   0     10    11.539    30.015    0.73E-04    0.45E-04    0.22E-06
   1     10    11.539    18.849    0.87E-04    0.16E-03    0.71E-07
   1     10    11.539    14.624    0.73E-04    0.13E-03    0.64E-07
 Optimization of the real space projectors (new method)

 maximal supplied QI-value         = 24.76
 optimisation between [QCUT,QGAM] = [ 11.64, 23.27] = [ 37.91,151.63] Ry 
 Optimized for a Real-space Cutoff    1.14 Angstroem

   l    n(q)    QCUT    max X(q) W(low)/X(q) W(high)/X(q)  e(spline) 
   0      8    11.635    20.381    0.10E-03    0.33E-03    0.24E-06
   0      8    11.635    15.268    0.11E-03    0.35E-03    0.26E-06
   1      7    11.635     5.964    0.24E-03    0.31E-03    0.30E-06
   1      7    11.635     5.382    0.22E-03    0.25E-03    0.26E-06
  PAW_PBE Fe 06Sep2000                  :
 energy of atom  1       EATOM= -594.3153
 kinetic energy error for atom=    0.0026 (will be added to EATOM!!)
  PAW_PBE Ni 02Aug2007                  :
 energy of atom  2       EATOM=-1077.6739
 kinetic energy error for atom=    0.0030 (will be added to EATOM!!)
  PAW_PBE O 08Apr2002                   :
 energy of atom  3       EATOM= -432.3788
 kinetic energy error for atom=    0.0208 (will be added to EATOM!!)
 
 
 POSCAR: POSCAR                                  
  positions in direct lattice
  velocities in cartesian coordinates
 exchange correlation table for  LEXCH =        8
   RHO(1)=    0.500       N(1)  =     2000
   RHO(2)=  100.500       N(2)  =     4000

 VTST: version 3.2, (02/03/18)

 CHAIN: initializing optimizer
 
 OPT: Using VASP Dynamics algorithm
 CHAIN: Read ICHAIN            0
 
 POSCAR: POSCAR                                  
  positions in direct lattice
  velocities in cartesian coordinates
 


--------------------------------------------------------------------------------------------------------


 ion  position               nearest neighbor table
   1  0.002  0.999  0.097-   9 2.45  29 2.50  49 2.51  64 2.51  44 2.53   7 2.53  51 2.54  38 2.55
                             5 2.60
   2  0.003  0.002  0.381-  11 2.43  48 2.45   8 2.49  30 2.50  52 2.51  57 2.51   6 2.51  50 2.55
                            39 2.56
   3  0.499  0.996  0.096-   5 2.47  62 2.50  34 2.52  31 2.52  49 2.53  45 2.55  55 2.55  12 2.56
                            53 2.58
   4  0.495  0.987  0.379-  63 2.40  15 2.43  32 2.45  35 2.46  13 2.47  50 2.52   6 2.55  56 2.58
                            54 2.61
   5  0.743  0.996  0.094-   3 2.47  34 2.47  62 2.52  38 2.53  55 2.54  64 2.58  14 2.58  51 2.59
                             1 2.60
   6  0.752  0.996  0.382-  68 1.79  39 2.44  47 2.49  56 2.49  57 2.50   2 2.51  35 2.53  15 2.54
                             4 2.55  52 2.59
   7  0.249  0.253  0.097-  22 2.43   9 2.44  51 2.49  18 2.52  20 2.53   1 2.53  53 2.54  10 2.55
                            49 2.58
   8  0.250  0.249  0.382-  66 1.77  11 2.44  19 2.46  52 2.46   2 2.49  59 2.50  26 2.52  21 2.52
                            54 2.54  50 2.57
   9  0.089  0.161  0.191-  10 2.41   7 2.44   1 2.45  44 2.47  59 2.52  51 2.52  57 2.53  11 2.53
                            64 2.54  22 2.55  58 2.62  14 2.68
  10  0.330  0.166  0.195-  26 2.41   9 2.41  11 2.45  13 2.47  22 2.48  45 2.48  44 2.49   7 2.55
                            12 2.57  49 2.58  53 2.59  25 2.59
  11  0.170  0.083  0.290-   2 2.43   8 2.44  10 2.45  26 2.50  44 2.52  59 2.52  13 2.52  46 2.52
                             9 2.53  48 2.54  50 2.56  57 2.57
  12  0.583  0.166  0.194-  15 2.43  13 2.44  14 2.45  27 2.50  62 2.52  45 2.54  55 2.55   3 2.56
                            10 2.57  53 2.58  25 2.58  28 2.60
  13  0.421  0.088  0.288-  12 2.44  26 2.45  15 2.46  10 2.47   4 2.47  45 2.50  11 2.52  54 2.56
                            46 2.56  28 2.56  63 2.58  50 2.59
  14  0.827  0.167  0.193-  60 2.45  12 2.45  15 2.47  57 2.48  62 2.51  55 2.51  27 2.53  58 2.56
                            51 2.56   5 2.58  64 2.59   9 2.68
  15  0.663  0.085  0.288-   4 2.43  12 2.43  13 2.46  14 2.47  60 2.51  62 2.51   6 2.54  56 2.55
                            63 2.55  47 2.56  57 2.56  28 2.56
  16  0.003  0.511  0.095-  31 2.44  29 2.45  23 2.48  33 2.51  58 2.57  18 2.58  27 2.59  55 2.60
                            51 2.63
  17  0.002  0.503  0.376-  43 2.37  37 2.40  60 2.43  32 2.51  19 2.55  30 2.55  24 2.56  52 2.57
                            56 2.62
  18  0.256  0.506  0.097-  36 2.40  31 2.45  34 2.47  22 2.47  20 2.48   7 2.52  58 2.53  51 2.58
                            16 2.58
  19  0.247  0.491  0.384-  67 1.84  52 2.42   8 2.46  59 2.51  21 2.52  17 2.55  37 2.55  61 2.56
                            35 2.58  32 2.60
  20  0.500  0.503  0.098-  22 2.41  40 2.43  34 2.48  18 2.48  38 2.50  25 2.53   7 2.53  53 2.54
                            23 2.58
  21  0.500  0.498  0.377-  42 2.37  26 2.43  61 2.43  35 2.51  19 2.52   8 2.52  39 2.55  24 2.56
                            54 2.56
  22  0.339  0.416  0.189-  20 2.41   7 2.43  40 2.46  18 2.47  25 2.48  10 2.48  61 2.51  36 2.53
                            26 2.53  59 2.54   9 2.55  58 2.60
  23  0.757  0.508  0.096-  29 2.40  41 2.46  16 2.48  27 2.48  38 2.48  25 2.56  55 2.57  20 2.58
                            53 2.60
  24  0.749  0.496  0.396-  69 1.78  65 1.85  54 2.54  21 2.56  17 2.56  28 2.58  56 2.59  39 2.61
                            30 2.63  43 2.70  42 2.73
  25  0.586  0.422  0.194-  40 2.45  26 2.45  41 2.46  27 2.46  42 2.46  22 2.48  20 2.53  28 2.54
                            23 2.56  53 2.58  12 2.58  10 2.59
  26  0.419  0.329  0.287-  10 2.41  21 2.43  25 2.45  13 2.45  11 2.50  28 2.50   8 2.52  22 2.53
                            42 2.54  59 2.55  61 2.57  54 2.61
  27  0.827  0.417  0.192-  41 2.45  25 2.46  23 2.48  12 2.50  55 2.51  60 2.52  28 2.52  14 2.53
                            43 2.55  58 2.59  16 2.59  33 2.60
  28  0.673  0.343  0.292-  43 2.46  42 2.49  60 2.50  26 2.50  27 2.52  25 2.54  15 2.56  13 2.56
                            54 2.57  24 2.58  56 2.58  12 2.60
  29  0.992  0.747  0.096-  23 2.40  16 2.45  38 2.48  41 2.50   1 2.50  33 2.54  44 2.56  49 2.57
                            31 2.63
  30  0.007  0.757  0.388-  65 1.86  50 2.45  46 2.46  32 2.50   2 2.50  17 2.55  43 2.58  39 2.61
                            48 2.61  24 2.63
  31  0.251  0.746  0.097-  16 2.44  36 2.44  18 2.45  33 2.49  34 2.52   3 2.52  45 2.55  49 2.56
                            29 2.63
  32  0.251  0.749  0.388-  67 1.86   4 2.45  46 2.49  50 2.50  30 2.50  17 2.51  35 2.55  19 2.60
                            63 2.60  37 2.63
  33  0.086  0.671  0.192-  45 2.48  44 2.48  31 2.49  16 2.51  37 2.52  36 2.52  41 2.52  29 2.54
                            43 2.54  58 2.55  46 2.59  27 2.60
  34  0.502  0.749  0.098-  18 2.47   5 2.47  40 2.48  36 2.48  20 2.48  62 2.49  38 2.49  31 2.52
                             3 2.52
  35  0.501  0.746  0.384-  67 1.88  39 2.46   4 2.46  47 2.49  21 2.51   6 2.53  61 2.54  32 2.55
                            63 2.56  19 2.58
  36  0.330  0.661  0.190-  18 2.40  31 2.44  34 2.48  37 2.49  58 2.49  61 2.50  63 2.52  33 2.52
                            22 2.53  40 2.53  62 2.56  45 2.62
  37  0.169  0.580  0.286-  17 2.40  58 2.46  61 2.49  36 2.49  63 2.50  59 2.51  33 2.52  19 2.55
                            60 2.56  46 2.57  43 2.59  32 2.63
  38  0.748  0.749  0.094-  29 2.48  23 2.48  34 2.49  20 2.50   5 2.53  40 2.54  64 2.55   1 2.55
                            41 2.58
  39  0.747  0.752  0.386-  65 1.85   6 2.44  35 2.46  42 2.53  48 2.54  47 2.54  21 2.55   2 2.56
                            24 2.61  30 2.61
  40  0.580  0.661  0.192-  20 2.43  25 2.45  22 2.46  61 2.47  34 2.48  42 2.51  47 2.52  36 2.53
                            38 2.54  41 2.54  62 2.56  64 2.57
  41  0.832  0.662  0.193-  27 2.45  25 2.46  23 2.46  43 2.47  29 2.50  42 2.51  33 2.52  48 2.54
                            40 2.54  64 2.54  44 2.57  38 2.58
  42  0.665  0.584  0.289-  21 2.37  25 2.46  28 2.49  40 2.51  41 2.51  47 2.51  61 2.51  43 2.52
                            39 2.53  48 2.53  26 2.54  24 2.73
  43  0.916  0.587  0.289-  17 2.37  28 2.46  41 2.47  42 2.52  46 2.53  48 2.54  33 2.54  27 2.55
                            60 2.58  30 2.58  37 2.59  24 2.70
  44  0.086  0.916  0.194-  45 2.43   9 2.47  33 2.48  10 2.49  48 2.51  11 2.52   1 2.53  49 2.53
                            64 2.54  29 2.56  41 2.57  46 2.58
  45  0.327  0.919  0.193-  44 2.43  33 2.48  10 2.48  49 2.49  13 2.50  63 2.52  12 2.54  31 2.55
                             3 2.55  46 2.55  62 2.59  36 2.62
  46  0.169  0.834  0.294-  50 2.46  30 2.46  32 2.49  63 2.50  11 2.52  43 2.53  45 2.55  13 2.56
                            37 2.57  44 2.58  33 2.59  48 2.60
  47  0.661  0.831  0.287-  62 2.47   6 2.49  35 2.49  63 2.49  61 2.51  42 2.51  64 2.52  40 2.52
                            48 2.53  39 2.54  15 2.56  57 2.56
  48  0.914  0.837  0.288-   2 2.45  64 2.46  57 2.49  44 2.51  47 2.53  42 2.53  39 2.54  43 2.54
                            41 2.54  11 2.54  46 2.60  30 2.61
  49  0.249  0.998  0.096-  45 2.49   1 2.51  44 2.53   3 2.53  53 2.55  31 2.56  29 2.57  10 2.58
                             7 2.58
  50  0.252  0.997  0.388-  66 1.87  30 2.45  46 2.46  54 2.50  32 2.50   4 2.52   2 2.55  11 2.56
                             8 2.57  13 2.59
  51  0.001  0.250  0.097-   7 2.49  58 2.51   9 2.52   1 2.54  55 2.55  14 2.56  18 2.58   5 2.59
                            16 2.63
  52  0.008  0.252  0.381-  68 1.87  19 2.42  59 2.46   8 2.46   2 2.51  57 2.51  60 2.51  56 2.55
                            17 2.57   6 2.59
  53  0.499  0.252  0.095-  55 2.53   7 2.54  20 2.54  49 2.55   3 2.58  25 2.58  12 2.58  10 2.59
                            23 2.60
  54  0.498  0.245  0.389-  69 1.88  66 1.93  50 2.50   8 2.54  24 2.54  13 2.56  21 2.56  56 2.57
                            28 2.57   4 2.61  26 2.61
  55  0.749  0.251  0.096-  14 2.51  27 2.51  53 2.53   5 2.54  51 2.55   3 2.55  12 2.55  23 2.57
                            16 2.60
  56  0.750  0.241  0.389-  69 1.88  68 1.93   6 2.49  15 2.55  52 2.55  54 2.57   4 2.58  28 2.58
                            24 2.59  60 2.60  17 2.62
  57  0.915  0.083  0.286-  64 2.47  14 2.48  48 2.49   6 2.50  60 2.51   2 2.51  52 2.51   9 2.53
                            59 2.53  47 2.56  15 2.56  11 2.57
  58  0.083  0.417  0.192-  37 2.46  36 2.49  60 2.49  59 2.50  51 2.51  18 2.53  33 2.55  14 2.56
                            16 2.57  27 2.59  22 2.60   9 2.62
  59  0.168  0.331  0.286-  52 2.46  58 2.50   8 2.50  19 2.51  37 2.51  61 2.52   9 2.52  11 2.52
                            57 2.53  22 2.54  26 2.55  60 2.57
  60  0.913  0.330  0.287-  17 2.43  14 2.45  58 2.49  28 2.50  15 2.51  57 2.51  52 2.51  27 2.52
                            37 2.56  59 2.57  43 2.58  56 2.60
  61  0.415  0.581  0.286-  21 2.43  40 2.47  37 2.49  36 2.50  47 2.51  42 2.51  22 2.51  59 2.52
                            63 2.52  35 2.54  19 2.56  26 2.57
  62  0.582  0.915  0.192-  47 2.47  63 2.48  34 2.49   3 2.50  14 2.51  15 2.51   5 2.52  12 2.52
                            64 2.55  36 2.56  40 2.56  45 2.59
  63  0.414  0.829  0.286-   4 2.40  62 2.48  47 2.49  37 2.50  46 2.50  45 2.52  61 2.52  36 2.52
                            15 2.55  35 2.56  13 2.58  32 2.60
  64  0.834  0.915  0.192-  48 2.46  57 2.47   1 2.51  47 2.52   9 2.54  44 2.54  41 2.54  38 2.55
                            62 2.55  40 2.57   5 2.58  14 2.59
  65  0.837  0.678  0.440-  39 1.85  24 1.85  30 1.86
  66  0.315  0.167  0.439-   8 1.77  50 1.87  54 1.93
  67  0.332  0.655  0.438-  19 1.84  32 1.86  35 1.88
  68  0.845  0.149  0.437-   6 1.79  52 1.87  56 1.93
  69  0.669  0.328  0.443-  24 1.78  56 1.88  54 1.88
 

IMPORTANT INFORMATION: All symmetrisations will be switched off!
NOSYMM: (Re-)initialisation of all symmetry stuff for point group C_1.

 
 

Automatic generation of k-mesh.
 generate k-points for:    1    1    1
Space group operators:
 irot       det(A)        alpha          n_x          n_y          n_z        tau_x        tau_y        tau_z
    1     1.000000     0.000000     1.000000     0.000000     0.000000     0.000000     0.000000     0.000000
 
 Subroutine IBZKPT returns following result:
 ===========================================
 
 Found      1 irreducible k-points:
 
 Following reciprocal coordinates:
            Coordinates               Weight
  0.000000  0.000000  0.000000      1.000000
 
 Following cartesian coordinates:
            Coordinates               Weight
  0.000000  0.000000  0.000000      1.000000
 
 
 Subroutine IBZKPT_HF returns following result:
 ==============================================
 
 Found      1 k-points in 1st BZ
 the following      1 k-points will be used (e.g. in the exchange kernel)
 Following reciprocal coordinates:   # in IRBZ
  0.000000  0.000000  0.000000    1.00000000   1 t-inv F


--------------------------------------------------------------------------------------------------------




 Dimension of arrays:
   k-points           NKPTS =      1   k-points in BZ     NKDIM =      1   number of bands    NBANDS=    345
   number of dos      NEDOS =    301   number of ions     NIONS =     69
   non local maximal  LDIM  =      6   non local SUM 2l+1 LMDIM =     18
   total plane-waves  NPLWV = ******
   max r-space proj   IRMAX =   8269   max aug-charges    IRDMAX=  19568
   dimension x,y,z NGX =    80 NGY =   80 NGZ =  160
   dimension x,y,z NGXF=   160 NGYF=  160 NGZF=  320
   support grid    NGXF=   160 NGYF=  160 NGZF=  320
   ions per type =              48  16   5
   NGX,Y,Z   is equivalent  to a cutoff of  13.15, 13.15, 12.51 a.u.
   NGXF,Y,Z  is equivalent  to a cutoff of  26.31, 26.31, 25.02 a.u.

 SYSTEM =  SQS-NiFe                                
 POSCAR =  POSCAR                                  

 Startparameter for this run:
   NWRITE =      2    write-flag & timer
   PREC   = accura    normal or accurate (medium, high low for compatibility)
   ISTART =      0    job   : 0-new  1-cont  2-samecut
   ICHARG =      1    charge: 1-file 2-atom 10-const
   ISPIN  =      1    spin polarized calculation?
   LNONCOLLINEAR =      F non collinear calculations
   LSORBIT =      F    spin-orbit coupling
   INIWAV =      1    electr: 0-lowe 1-rand  2-diag
   LASPH  =      F    aspherical Exc in radial PAW
   METAGGA=      F    non-selfconsistent MetaGGA calc.

 Electronic Relaxation 1
   ENCUT  =  520.0 eV  38.22 Ry    6.18 a.u.  18.80 18.80 39.54*2*pi/ulx,y,z
   ENINI  =  520.0     initial cutoff
   ENAUG  =  605.4 eV  augmentation charge cutoff
   NELM   =    200;   NELMIN=  2; NELMDL= -5     # of ELM steps 
   EDIFF  = 0.1E-05   stopping-criterion for ELM
   LREAL  =      T    real-space projection
   NLSPLINE    = F    spline interpolate recip. space projectors
   LCOMPAT=      F    compatible to vasp.4.4
   GGA_COMPAT  = T    GGA compatible to vasp.4.4-vasp.4.6
   LMAXPAW     = -100 max onsite density
   LMAXMIX     =    2 max onsite mixed and CHGCAR
   VOSKOWN=      0    Vosko Wilk Nusair interpolation
   ROPT   =   -0.00025  -0.00025  -0.00025
 Ionic relaxation
   EDIFFG = -.2E-01   stopping-criterion for IOM
   NSW    =    865    number of steps for IOM
   NBLOCK =      1;   KBLOCK =    865    inner block; outer block 
   IBRION =      5    ionic relax: 0-MD 1-quasi-New 2-CG
   NFREE  =      2    steps in history (QN), initial steepest desc. (CG)
   ISIF   =      2    stress and relaxation
   IWAVPR =     11    prediction:  0-non 1-charg 2-wave 3-comb
   ISYM   =      0    0-nonsym 1-usesym 2-fastsym
   LCORR  =      T    Harris-Foulkes like correction to forces

   POTIM  = 0.0150    time-step for ionic-motion
   TEIN   =    0.0    initial temperature
   TEBEG  =    0.0;   TEEND  =   0.0 temperature during run
   SMASS  =  -3.00    Nose mass-parameter (am)
   estimated Nose-frequenzy (Omega)   =  0.10E-29 period in steps =****** mass=  -0.234E-26a.u.
   SCALEE = 1.0000    scale energy and forces
   NPACO  =    256;   APACO  = 16.0  distance and # of slots for P.C.
   PSTRESS=    0.0 pullay stress

  Mass of Ions in am
   POMASS =  55.85 58.69 16.00
  Ionic Valenz
   ZVAL   =   8.00 10.00  6.00
  Atomic Wigner-Seitz radii
   RWIGS  =  -1.00 -1.00 -1.00
  virtual crystal weights 
   VCA    =   1.00  1.00  1.00
   NELECT =     574.0000    total number of electrons
   NUPDOWN=      -1.0000    fix difference up-down

 DOS related values:
   EMIN   =  10.00;   EMAX   =-10.00  energy-range for DOS
   EFERMI =   0.00
   ISMEAR =     0;   SIGMA  =   0.20  broadening in eV -4-tet -1-fermi 0-gaus

 Electronic relaxation 2 (details)
   IALGO  =     68    algorithm
   LDIAG  =      T    sub-space diagonalisation (order eigenvalues)
   LSUBROT=      F    optimize rotation matrix (better conditioning)
   TURBO    =      0    0=normal 1=particle mesh
   IRESTART =      0    0=no restart 2=restart with 2 vectors
   NREBOOT  =      0    no. of reboots
   NMIN     =      0    reboot dimension
   EREF     =   0.00    reference energy to select bands
   IMIX   =      4    mixing-type and parameters
     AMIX     =   0.40;   BMIX     =  1.00
     AMIX_MAG =   1.60;   BMIX_MAG =  1.00
     AMIN     =   0.10
     WC   =   100.;   INIMIX=   1;  MIXPRE=   1;  MAXMIX= -45

 Intra band minimization:
   WEIMIN = 0.0010     energy-eigenvalue tresh-hold
   EBREAK =  0.72E-09  absolut break condition
   DEPER  =   0.30     relativ break condition  

   TIME   =   0.40     timestep for ELM

  volume/ion in A,a.u.               =      27.29       184.17
  Fermi-wavevector in a.u.,A,eV,Ry     =   1.101767  2.082037 16.515972  1.213890
  Thomas-Fermi vector in A             =   2.238199
 
 Write flags
   LWAVE        =      F    write WAVECAR
   LDOWNSAMPLE  =      F    k-point downsampling of WAVECAR
   LCHARG       =      F    write CHGCAR
   LVTOT        =      F    write LOCPOT, total local potential
   LVHAR        =      F    write LOCPOT, Hartree potential only
   LELF         =      F    write electronic localiz. function (ELF)
   LORBIT       =     10    0 simple, 1 ext, 2 COOP (PROOUT), +10 PAW based schemes


 Dipole corrections
   LMONO  =      F    monopole corrections only (constant potential shift)
   LDIPOL =      F    correct potential (dipole corrections)
   IDIPOL =      0    1-x, 2-y, 3-z, 4-all directions 
   EPSILON=  1.0000000 bulk dielectric constant

 Exchange correlation treatment:
   GGA     =    --    GGA type
   LEXCH   =     8    internal setting for exchange type
   VOSKOWN=      0    Vosko Wilk Nusair interpolation
   LHFCALC =     F    Hartree Fock is set to
   LHFONE  =     F    Hartree Fock one center treatment
   AEXX    =    0.0000 exact exchange contribution

 Linear response parameters
   LEPSILON=     F    determine dielectric tensor
   LRPA    =     F    only Hartree local field effects (RPA)
   LNABLA  =     F    use nabla operator in PAW spheres
   LVEL    =     F    velocity operator in full k-point grid
   LINTERFAST=   F  fast interpolation
   KINTER  =     0    interpolate to denser k-point grid
   CSHIFT  =0.1000    complex shift for real part using Kramers Kronig
   OMEGAMAX=  -1.0    maximum frequency
   DEG_THRESHOLD= 0.2000000E-02 threshold for treating states as degnerate
   RTIME   =   -0.100 relaxation time in fs
  (WPLASMAI=    0.000 imaginary part of plasma frequency in eV, 0.658/RTIME)
   DFIELD  = 0.0000000 0.0000000 0.0000000 field for delta impulse in time
 
 Orbital magnetization related:
   ORBITALMAG=     F  switch on orbital magnetization
   LCHIMAG   =     F  perturbation theory with respect to B field
   DQ        =  0.001000  dq finite difference perturbation B field
   LLRAUG    =     F  two centre corrections for induced B field



--------------------------------------------------------------------------------------------------------


 finite differences
   using selective dynamics as specified on POSCAR
 charge density and potential will be updated during run
 non-spin polarized calculation
 RMM-DIIS sequential band-by-band and
  variant of blocked Davidson during initial phase
 perform sub-space diagonalisation
    before iterative eigenvector-optimisation
 modified Broyden-mixing scheme, WC =      100.0
 initial mixing is a Kerker type mixing with AMIX =  0.4000 and BMIX =      1.0000
 Hartree-type preconditioning will be used
 using additional bands           58
 real space projection scheme for non local part
 use partial core corrections
 calculate Harris-corrections to forces 
   (improved forces if not selfconsistent)
 use gradient corrections 
 use of overlap-Matrix (Vanderbilt PP)
 Gauss-broadening in eV      SIGMA  =   0.20


--------------------------------------------------------------------------------------------------------


  energy-cutoff  :      520.00
  volume of cell :     1883.07
      direct lattice vectors                 reciprocal lattice vectors
    10.111630000  0.000000000  0.000000000     0.098896024  0.057097646  0.000000000
    -5.055815000  8.756928450  0.000000000     0.000000000  0.114195292  0.000000000
     0.000000000  0.000000000 21.266430000     0.000000000  0.000000000  0.047022467

  length of vectors
    10.111630000 10.111629997 21.266430000     0.114195292  0.114195292  0.047022467


 
 k-points in units of 2pi/SCALE and weight: read from INCAR                         
   0.00000000  0.00000000  0.00000000       1.000
 
 k-points in reciprocal lattice and weights: read from INCAR                         
   0.00000000  0.00000000  0.00000000       1.000
 
 position of ions in fractional coordinates (direct lattice) 
   0.00194700  0.99920000  0.09682900
   0.00325685  0.00196278  0.38111237
   0.49880600  0.99647600  0.09614500
   0.49544669  0.98659692  0.37867872
   0.74316000  0.99645900  0.09443100
   0.75215354  0.99636361  0.38209615
   0.24913600  0.25322600  0.09681000
   0.24952126  0.24878899  0.38208532
   0.08873200  0.16149400  0.19059200
   0.32962600  0.16609800  0.19506300
   0.17011620  0.08347322  0.28995676
   0.58333000  0.16550300  0.19443700
   0.42130765  0.08781490  0.28774204
   0.82651500  0.16651000  0.19326300
   0.66289568  0.08462857  0.28783244
   0.00320800  0.51090900  0.09451300
   0.00224762  0.50316380  0.37608683
   0.25586900  0.50577700  0.09734600
   0.24721596  0.49056690  0.38429804
   0.49960200  0.50304900  0.09754100
   0.49957213  0.49769920  0.37711292
   0.33859900  0.41583700  0.18939300
   0.75679100  0.50804300  0.09630900
   0.74864708  0.49596264  0.39585971
   0.58633600  0.42229400  0.19423600
   0.41904271  0.32922116  0.28651377
   0.82677100  0.41676200  0.19199500
   0.67286331  0.34266216  0.29234111
   0.99180600  0.74702800  0.09571300
   0.00747975  0.75698441  0.38826830
   0.25104600  0.74563900  0.09703600
   0.25089401  0.74888802  0.38849241
   0.08604600  0.67086900  0.19220200
   0.50153700  0.74905700  0.09752900
   0.50118106  0.74625480  0.38400241
   0.33005900  0.66135600  0.19018600
   0.16887737  0.58017286  0.28642151
   0.74777500  0.74863100  0.09404500
   0.74715549  0.75247742  0.38579310
   0.58008200  0.66096300  0.19152700
   0.83213700  0.66199500  0.19303500
   0.66514391  0.58440654  0.28892815
   0.91582509  0.58668413  0.28912456
   0.08603600  0.91635500  0.19371200
   0.32743000  0.91932200  0.19293700
   0.16938261  0.83392140  0.29375235
   0.66132054  0.83085387  0.28723403
   0.91401628  0.83658855  0.28832000
   0.24916500  0.99813100  0.09559800
   0.25240513  0.99653834  0.38785908
   0.00129700  0.24974200  0.09658600
   0.00774746  0.25238049  0.38100316
   0.49933100  0.25162700  0.09537300
   0.49788485  0.24466050  0.38932550
   0.74944200  0.25071300  0.09573100
   0.75024152  0.24083997  0.38870433
   0.91540369  0.08300810  0.28571436
   0.08260800  0.41708000  0.19225300
   0.16779780  0.33104823  0.28606009
   0.91341666  0.33021495  0.28657697
   0.41517022  0.58112164  0.28594114
   0.58190700  0.91526900  0.19241300
   0.41401152  0.82932616  0.28623567
   0.83399900  0.91457100  0.19240400
   0.83708968  0.67785606  0.44004418
   0.31495449  0.16749454  0.43932577
   0.33219634  0.65516581  0.43828108
   0.84493127  0.14941645  0.43711071
   0.66865766  0.32797043  0.44303714
 
 position of ions in cartesian coordinates  (Angst):
  -5.03208300  8.74992291  2.05920715
   0.02300863  0.01718791  8.10489946
   0.00574341  8.72606903  2.04466091
   0.02172215  8.63955863  8.05314443
   2.47664659  8.72592017  2.00821025
   2.56806817  8.72508483  8.12582106
   1.23890724  2.21748196  2.05880309
   1.26523555  2.17862735  8.12559071
   0.08074137  1.41419140  4.05321143
   2.49329539  1.45450830  4.14829364
   1.29812691  0.73096903  6.16634520
   5.06166458  1.44929793  4.13498085
   3.81613112  0.76898882  6.11924595
   7.51557011  1.45811616  4.11001406
   6.27508944  0.74108637  6.12116843
  -2.55062328  4.47399356  2.00995410
  -2.52117599  4.40616937  7.99802424
   0.03013771  4.42905300  2.07020189
   0.01954081  4.29585923  8.17264746
   2.50846789  4.40516410  2.07434885
   2.53521342  4.35831632  8.01984560
   1.32139286  3.64145486  4.02771298
   5.08381916  4.44889620  2.04814861
   5.06254697  4.34310933  8.41852286
   3.79377235  3.69799834  4.13070630
   2.57272353  2.88296615  6.09312497
   6.25293088  3.64955501  4.08304823
   5.07130838  3.00066803  6.21705176
   6.25193994  6.54167075  2.03547381
  -3.75154070  6.62885830  8.25708057
  -1.23132858  6.52950737  2.06360930
  -1.24929193  6.55795882  8.26184660
  -2.52172424  5.87475183  4.08745038
   1.28426296  6.55943855  2.07409365
   1.29483126  6.53489985  8.16636041
  -0.00625910  5.79144717  4.04457726
  -1.22562113  5.08053222  6.09116299
   3.77628428  6.55570810  2.00000141
   3.75057323  6.58939089  8.20444205
   2.52386790  5.78800570  4.07309554
   5.06733720  5.79704285  4.10516532
   3.77103773  5.11760624  6.14447019
   6.29431805  5.13755094  6.14864722
  -3.76295716  8.02445517  4.11956269
  -1.33707095  8.05043698  4.10308120
  -2.50341802  7.30259002  6.24706380
   2.48638512  7.27572789  6.10844249
   5.01255752  7.32594609  6.13153707
  -2.52690139  8.74056175  2.03302818
  -2.48608624  8.72661493  8.24837804
  -1.24953457  2.18697282  2.05403941
  -1.19764966  2.21007791  8.10257706
   3.77687076  2.20347964  2.02824323
   3.79746913  2.14247449  8.27956359
   6.31052166  2.19547580  2.03585661
   6.36852239  2.10901834  8.26635338
   8.83654978  0.72689600  6.07612440
  -1.27337779  3.65233972  4.08853497
   0.02299070  2.89896564  6.08347697
   7.56662559  2.89166873  6.09446909
   1.26000410  5.08884062  6.08094723
   1.25659754  8.01494515  4.09193760
  -0.00658832  7.26234985  6.08721088
   3.80918753  8.00883281  4.09174620
   5.03722634  5.93593701  9.35816870
   2.33788187  1.46673773  9.34289074
   0.04664937  5.73724012  9.32067387
   7.78821045  1.30842915  9.29578435
   5.10306107  2.87201361  9.42181832
 


--------------------------------------------------------------------------------------------------------


 use parallel FFT for orbitals z direction half grid
 k-point  1 :   0.0000 0.0000 0.0000  plane waves:   25381

 maximum and minimum number of plane-waves per node :      1060     1055

 maximum number of plane-waves:     25381
 maximum index in each direction: 
   IXMAX=   18   IYMAX=   18   IZMAX=   39
   IXMIN=  -18   IYMIN=  -18   IZMIN=    0


 real space projection operators:
  total allocation   :      69906.92 KBytes
  max/ min on nodes  :       3485.83       2629.14


 parallel 3D FFT for wavefunctions:
    minimum data exchange during FFTs selected (reduces bandwidth)
 parallel 3D FFT for charge:
    minimum data exchange during FFTs selected (reduces bandwidth)


 total amount of memory used by VASP MPI-rank0    54174. kBytes
=======================================================================

   base      :      30000. kBytes
   nonlr-proj:       4259. kBytes
   fftplans  :       5965. kBytes
   grid      :      11929. kBytes
   one-center:         23. kBytes
   wavefun   :       1998. kBytes
 
     INWAV:  cpu time    0.0001: real time    0.0005
 Broyden mixing: mesh for mixing (old mesh)
   NGX = 37   NGY = 37   NGZ = 79
  (NGX  =160   NGY  =160   NGZ  =320)
  gives a total of 108151 points

 initial charge density was supplied:
 number of electron     574.0000091 magnetization 
 keeping initial charge density in first step


--------------------------------------------------------------------------------------------------------


 Maximum index for non-local projection operator          758
 Maximum index for augmentation-charges         1103 (set IRDMAX)


--------------------------------------------------------------------------------------------------------


 First call to EWALD:  gamma=   0.144
 Maximum number of real-space cells 4x 4x 2
 Maximum number of reciprocal cells 2x 2x 4

    FEWALD:  cpu time    0.0059: real time    0.0063


--------------------------------------- Iteration      1(   1)  ---------------------------------------


    POTLOK:  cpu time    0.1938: real time    0.2085
    SETDIJ:  cpu time    0.0132: real time    0.0257
     EDDAV:  cpu time    2.1391: real time    2.1669
       DOS:  cpu time    0.0017: real time    0.0057
    --------------------------------------------
      LOOP:  cpu time    2.3479: real time    2.4069

 eigenvalue-minimisations  :   690
 total energy-change (2. order) : 0.5441930E+04  (-0.2835577E+05)
 number of electron     574.0000091 magnetization 
 augmentation part      574.0000091 magnetization 

 Free energy of the ion-electron system (eV)
  ---------------------------------------------------
  alpha Z        PSCENC =      1548.06572579
  Ewald energy   TEWEN  =    175195.75680742
  -Hartree energ DENC   =   -222709.89165420
  -exchange      EXHF   =         0.00000000
  -V(xc)+E(xc)   XCENC  =       771.62655144
  PAW double counting   =     54614.25183030   -56153.09397161
  entropy T*S    EENTRO =        -0.51259985
  eigenvalues    EBANDS =      4244.19419745
  atomic energy  EATOM  =     47931.53331682
  Solvation  Ediel_sol  =         0.00000000
  ---------------------------------------------------
  free energy    TOTEN  =      5441.93020356 eV

  energy without entropy =     5442.44280341  energy(sigma->0) =     5442.18650349


--------------------------------------------------------------------------------------------------------




--------------------------------------- Iteration      1(   2)  ---------------------------------------


     EDDAV:  cpu time    1.9698: real time    1.9816
       DOS:  cpu time    0.0017: real time    0.0017
    --------------------------------------------
      LOOP:  cpu time    1.9715: real time    1.9833

 eigenvalue-minimisations  :   690
 total energy-change (2. order) :-0.5262453E+04  (-0.5146732E+04)
 number of electron     574.0000091 magnetization 
 augmentation part      574.0000091 magnetization 

 Free energy of the ion-electron system (eV)
  ---------------------------------------------------
  alpha Z        PSCENC =      1548.06572579
  Ewald energy   TEWEN  =    175195.75680742
  -Hartree energ DENC   =   -222709.89165420
  -exchange      EXHF   =         0.00000000
  -V(xc)+E(xc)   XCENC  =       771.62655144
  PAW double counting   =     54614.25183030   -56153.09397161
  entropy T*S    EENTRO =        -1.51472400
  eigenvalues    EBANDS =     -1017.25641242
  atomic energy  EATOM  =     47931.53331682
  Solvation  Ediel_sol  =         0.00000000
  ---------------------------------------------------
  free energy    TOTEN  =       179.47746954 eV

  energy without entropy =      180.99219354  energy(sigma->0) =      180.23483154


--------------------------------------------------------------------------------------------------------




--------------------------------------- Iteration      1(   3)  ---------------------------------------


     EDDAV:  cpu time    2.0336: real time    2.0493
       DOS:  cpu time    0.0016: real time    0.0015
    --------------------------------------------
      LOOP:  cpu time    2.0352: real time    2.0508

 eigenvalue-minimisations  :   723
 total energy-change (2. order) :-0.5422547E+03  (-0.4842907E+03)
 number of electron     574.0000091 magnetization 
 augmentation part      574.0000091 magnetization 

 Free energy of the ion-electron system (eV)
  ---------------------------------------------------
  alpha Z        PSCENC =      1548.06572579
  Ewald energy   TEWEN  =    175195.75680742
  -Hartree energ DENC   =   -222709.89165420
  -exchange      EXHF   =         0.00000000
  -V(xc)+E(xc)   XCENC  =       771.62655144
  PAW double counting   =     54614.25183030   -56153.09397161
  entropy T*S    EENTRO =        -2.43254986
  eigenvalues    EBANDS =     -1558.59329513
  atomic energy  EATOM  =     47931.53331682
  Solvation  Ediel_sol  =         0.00000000
  ---------------------------------------------------
  free energy    TOTEN  =      -362.77723903 eV

  energy without entropy =     -360.34468918  energy(sigma->0) =     -361.56096410


--------------------------------------------------------------------------------------------------------




--------------------------------------- Iteration      1(   4)  ---------------------------------------


     EDDAV:  cpu time    3.3662: real time    3.3801
       DOS:  cpu time    0.0072: real time    0.0072
    --------------------------------------------
      LOOP:  cpu time    3.3735: real time    3.3874

 eigenvalue-minimisations  :  1362
 total energy-change (2. order) :-0.1094497E+03  (-0.1029077E+03)
 number of electron     574.0000091 magnetization 
 augmentation part      574.0000091 magnetization 

 Free energy of the ion-electron system (eV)
  ---------------------------------------------------
  alpha Z        PSCENC =      1548.06572579
  Ewald energy   TEWEN  =    175195.75680742
  -Hartree energ DENC   =   -222709.89165420
  -exchange      EXHF   =         0.00000000
  -V(xc)+E(xc)   XCENC  =       771.62655144
  PAW double counting   =     54614.25183030   -56153.09397161
  entropy T*S    EENTRO =        -2.83957949
  eigenvalues    EBANDS =     -1667.63596277
  atomic energy  EATOM  =     47931.53331682
  Solvation  Ediel_sol  =         0.00000000
  ---------------------------------------------------
  free energy    TOTEN  =      -472.22693630 eV

  energy without entropy =     -469.38735681  energy(sigma->0) =     -470.80714655


--------------------------------------------------------------------------------------------------------




--------------------------------------- Iteration      1(   5)  ---------------------------------------


     EDDAV:  cpu time    2.9398: real time    2.9545
       DOS:  cpu time    0.0016: real time    0.0016
    CHARGE:  cpu time    0.1053: real time    0.1164
    MIXING:  cpu time    0.0046: real time    0.0127
    --------------------------------------------
      LOOP:  cpu time    3.0514: real time    3.0852

 eigenvalue-minimisations  :  1164
 total energy-change (2. order) :-0.1296481E+02  (-0.1238325E+02)
 number of electron     574.0000091 magnetization 
 augmentation part      299.1015678 magnetization 

 Broyden mixing:
  rms(total) = 0.33443E+01    rms(broyden)= 0.33441E+01
  rms(prec ) = 0.38603E+01
  weight for this iteration     100.00

 Free energy of the ion-electron system (eV)
  ---------------------------------------------------
  alpha Z        PSCENC =      1548.06572579
  Ewald energy   TEWEN  =    175195.75680742
  -Hartree energ DENC   =   -222709.89165420
  -exchange      EXHF   =         0.00000000
  -V(xc)+E(xc)   XCENC  =       771.62655144
  PAW double counting   =     54614.25183030   -56153.09397161
  entropy T*S    EENTRO =        -2.98335754
  eigenvalues    EBANDS =     -1680.45699233
  atomic energy  EATOM  =     47931.53331682
  Solvation  Ediel_sol  =         0.00000000
  ---------------------------------------------------
  free energy    TOTEN  =      -485.19174391 eV

  energy without entropy =     -482.20838637  energy(sigma->0) =     -483.70006514


--------------------------------------------------------------------------------------------------------




--------------------------------------- Iteration      1(   6)  ---------------------------------------


    POTLOK:  cpu time    0.1810: real time    0.1913
    SETDIJ:  cpu time    0.0107: real time    0.0107
    EDDIAG:  cpu time    0.2948: real time    0.2969
  RMM-DIIS:  cpu time    1.7938: real time    1.7974
    ORTHCH:  cpu time    0.0608: real time    0.0608
       DOS:  cpu time    0.0029: real time    0.0029
    CHARGE:  cpu time    0.0968: real time    0.0968
    MIXING:  cpu time    0.0037: real time    0.0058
    --------------------------------------------
      LOOP:  cpu time    2.4445: real time    2.4627

 eigenvalue-minimisations  :   889
 total energy-change (2. order) :-0.3650926E+03  (-0.5399356E+02)
 number of electron     574.0000094 magnetization 
 augmentation part      313.1850494 magnetization 

 Broyden mixing:
  rms(total) = 0.17451E+02    rms(broyden)= 0.17451E+02
  rms(prec ) = 0.23391E+02
  weight for this iteration     100.00

 eigenvalues of (default mixing * dielectric matrix)
  average eigenvalue GAMMA=   0.1359
  0.1359

 Free energy of the ion-electron system (eV)
  ---------------------------------------------------
  alpha Z        PSCENC =      1548.06572579
  Ewald energy   TEWEN  =    175195.75680742
  -Hartree energ DENC   =   -222657.66764309
  -exchange      EXHF   =         0.00000000
  -V(xc)+E(xc)   XCENC  =       767.43214615
  PAW double counting   =     53922.15374343   -55423.71131992
  entropy T*S    EENTRO =        -0.95864733
  eigenvalues    EBANDS =     -2132.88844904
  atomic energy  EATOM  =     47931.53331682
  Solvation  Ediel_sol  =         0.00000000
  ---------------------------------------------------
  free energy    TOTEN  =      -850.28431976 eV

  energy without entropy =     -849.32567244  energy(sigma->0) =     -849.80499610


--------------------------------------------------------------------------------------------------------




--------------------------------------- Iteration      1(   7)  ---------------------------------------


    POTLOK:  cpu time    0.1811: real time    0.1927
    SETDIJ:  cpu time    0.0106: real time    0.0106
    EDDIAG:  cpu time    0.2882: real time    0.2883
  RMM-DIIS:  cpu time    1.3950: real time    1.3952
    ORTHCH:  cpu time    0.0610: real time    0.0610
       DOS:  cpu time    0.0029: real time    0.0029
    CHARGE:  cpu time    0.1012: real time    0.1012
    MIXING:  cpu time    0.0035: real time    0.0035
    --------------------------------------------
      LOOP:  cpu time    2.0435: real time    2.0554

 eigenvalue-minimisations  :   691
 total energy-change (2. order) : 0.2894680E+03  (-0.2028615E+02)
 number of electron     574.0000080 magnetization 
 augmentation part      304.5192519 magnetization 

 Broyden mixing:
  rms(total) = 0.11028E+02    rms(broyden)= 0.11028E+02
  rms(prec ) = 0.13395E+02
  weight for this iteration     100.00

 eigenvalues of (default mixing * dielectric matrix)
  average eigenvalue GAMMA=   0.1133
  0.1477  0.0790

 Free energy of the ion-electron system (eV)
  ---------------------------------------------------
  alpha Z        PSCENC =      1548.06572579
  Ewald energy   TEWEN  =    175195.75680742
  -Hartree energ DENC   =   -222696.43124333
  -exchange      EXHF   =         0.00000000
  -V(xc)+E(xc)   XCENC  =       769.49788790
  PAW double counting   =     54063.70108912   -55580.55836006
  entropy T*S    EENTRO =        -1.93245117
  eigenvalues    EBANDS =     -1790.44909384
  atomic energy  EATOM  =     47931.53331682
  Solvation  Ediel_sol  =         0.00000000
  ---------------------------------------------------
  free energy    TOTEN  =      -560.81632136 eV

  energy without entropy =     -558.88387018  energy(sigma->0) =     -559.85009577


--------------------------------------------------------------------------------------------------------




--------------------------------------- Iteration      1(   8)  ---------------------------------------


    POTLOK:  cpu time    0.1845: real time    0.1981
    SETDIJ:  cpu time    0.0106: real time    0.0106
    EDDIAG:  cpu time    0.2865: real time    0.2866
  RMM-DIIS:  cpu time    1.4000: real time    1.4012
    ORTHCH:  cpu time    0.0599: real time    0.0599
       DOS:  cpu time    0.0032: real time    0.0032
    CHARGE:  cpu time    0.1053: real time    0.1053
    MIXING:  cpu time    0.0036: real time    0.0036
    --------------------------------------------
      LOOP:  cpu time    2.0535: real time    2.0685

 eigenvalue-minimisations  :   694
 total energy-change (2. order) : 0.6541282E+02  (-0.6614512E+01)
 number of electron     574.0000097 magnetization 
 augmentation part      299.7530316 magnetization 

 Broyden mixing:
  rms(total) = 0.57253E+01    rms(broyden)= 0.57250E+01
  rms(prec ) = 0.70095E+01
  weight for this iteration     100.00

 eigenvalues of (default mixing * dielectric matrix)
  average eigenvalue GAMMA=   0.0923
  0.1361  0.0889  0.0519

 Free energy of the ion-electron system (eV)
  ---------------------------------------------------
  alpha Z        PSCENC =      1548.06572579
  Ewald energy   TEWEN  =    175195.75680742
  -Hartree energ DENC   =   -222752.25977006
  -exchange      EXHF   =         0.00000000
  -V(xc)+E(xc)   XCENC  =       770.33141993
  PAW double counting   =     54107.09951802   -55630.73987171
  entropy T*S    EENTRO =        -2.44517667
  eigenvalues    EBANDS =     -1662.74547034
  atomic energy  EATOM  =     47931.53331682
  Solvation  Ediel_sol  =         0.00000000
  ---------------------------------------------------
  free energy    TOTEN  =      -495.40350080 eV

  energy without entropy =     -492.95832413  energy(sigma->0) =     -494.18091246


--------------------------------------------------------------------------------------------------------




--------------------------------------- Iteration      1(   9)  ---------------------------------------


    POTLOK:  cpu time    0.1816: real time    0.1945
    SETDIJ:  cpu time    0.0105: real time    0.0105
    EDDIAG:  cpu time    0.3058: real time    0.3059
  RMM-DIIS:  cpu time    1.8859: real time    1.8871
    ORTHCH:  cpu time    0.0614: real time    0.0614
       DOS:  cpu time    0.0026: real time    0.0026
    CHARGE:  cpu time    0.1053: real time    0.1053
    MIXING:  cpu time    0.0037: real time    0.0037
    --------------------------------------------
      LOOP:  cpu time    2.5577: real time    2.5711

 eigenvalue-minimisations  :   938
 total energy-change (2. order) : 0.1156865E+02  (-0.2413593E+01)
 number of electron     574.0000092 magnetization 
 augmentation part      299.4591422 magnetization 

 Broyden mixing:
  rms(total) = 0.23122E+01    rms(broyden)= 0.23120E+01
  rms(prec ) = 0.25339E+01
  weight for this iteration     100.00

 eigenvalues of (default mixing * dielectric matrix)
  average eigenvalue GAMMA=   0.1282
  0.2023  0.1249  0.1249  0.0607

 Free energy of the ion-electron system (eV)
  ---------------------------------------------------
  alpha Z        PSCENC =      1548.06572579
  Ewald energy   TEWEN  =    175195.75680742
  -Hartree energ DENC   =   -222724.08735273
  -exchange      EXHF   =         0.00000000
  -V(xc)+E(xc)   XCENC  =       770.46208964
  PAW double counting   =     54079.22486038   -55602.86490738
  entropy T*S    EENTRO =        -3.07451025
  eigenvalues    EBANDS =     -1678.85087629
  atomic energy  EATOM  =     47931.53331682
  Solvation  Ediel_sol  =         0.00000000
  ---------------------------------------------------
  free energy    TOTEN  =      -483.83484661 eV

  energy without entropy =     -480.76033636  energy(sigma->0) =     -482.29759148


--------------------------------------------------------------------------------------------------------




--------------------------------------- Iteration      1(  10)  ---------------------------------------


    POTLOK:  cpu time    0.1841: real time    0.1959
    SETDIJ:  cpu time    0.0106: real time    0.0106
    EDDIAG:  cpu time    0.2892: real time    0.2892
  RMM-DIIS:  cpu time    1.5149: real time    1.5154
    ORTHCH:  cpu time    0.0611: real time    0.0611
       DOS:  cpu time    0.0029: real time    0.0029
    CHARGE:  cpu time    0.1054: real time    0.1054
    MIXING:  cpu time    0.0038: real time    0.0038
    --------------------------------------------
      LOOP:  cpu time    2.1712: real time    2.1843

 eigenvalue-minimisations  :   749
 total energy-change (2. order) :-0.1794603E+01  (-0.1137317E+01)
 number of electron     574.0000092 magnetization 
 augmentation part      299.6896325 magnetization 

 Broyden mixing:
  rms(total) = 0.33302E+01    rms(broyden)= 0.33301E+01
  rms(prec ) = 0.38731E+01
  weight for this iteration     100.00

 eigenvalues of (default mixing * dielectric matrix)
  average eigenvalue GAMMA=   0.1885
  0.5193  0.1421  0.1421  0.0832  0.0560

 Free energy of the ion-electron system (eV)
  ---------------------------------------------------
  alpha Z        PSCENC =      1548.06572579
  Ewald energy   TEWEN  =    175195.75680742
  -Hartree energ DENC   =   -222721.98675075
  -exchange      EXHF   =         0.00000000
  -V(xc)+E(xc)   XCENC  =       770.45425133
  PAW double counting   =     53988.93143895   -55510.58828549
  entropy T*S    EENTRO =        -3.04281270
  eigenvalues    EBANDS =     -1684.75314096
  atomic energy  EATOM  =     47931.53331682
  Solvation  Ediel_sol  =         0.00000000
  ---------------------------------------------------
  free energy    TOTEN  =      -485.62944960 eV

  energy without entropy =     -482.58663690  energy(sigma->0) =     -484.10804325


--------------------------------------------------------------------------------------------------------




--------------------------------------- Iteration      1(  11)  ---------------------------------------


    POTLOK:  cpu time    0.1841: real time    0.1977
    SETDIJ:  cpu time    0.0106: real time    0.0106
    EDDIAG:  cpu time    0.2877: real time    0.2885
  RMM-DIIS:  cpu time    1.5084: real time    1.5139
    ORTHCH:  cpu time    0.0601: real time    0.0601
       DOS:  cpu time    0.0036: real time    0.0036
    CHARGE:  cpu time    0.1053: real time    0.1053
    MIXING:  cpu time    0.0039: real time    0.0039
    --------------------------------------------
      LOOP:  cpu time    2.1646: real time    2.1836

 eigenvalue-minimisations  :   742
 total energy-change (2. order) :-0.1647525E+01  (-0.1446412E+01)
 number of electron     574.0000092 magnetization 
 augmentation part      300.5011399 magnetization 

 Broyden mixing:
  rms(total) = 0.33937E+01    rms(broyden)= 0.33936E+01
  rms(prec ) = 0.39230E+01
  weight for this iteration     100.00

 eigenvalues of (default mixing * dielectric matrix)
  average eigenvalue GAMMA=   0.2902
  1.1518  0.1783  0.1783  0.0929  0.0836  0.0561

 Free energy of the ion-electron system (eV)
  ---------------------------------------------------
  alpha Z        PSCENC =      1548.06572579
  Ewald energy   TEWEN  =    175195.75680742
  -Hartree energ DENC   =   -222705.21954033
  -exchange      EXHF   =         0.00000000
  -V(xc)+E(xc)   XCENC  =       770.12954288
  PAW double counting   =     53797.43943912   -55312.68700306
  entropy T*S    EENTRO =        -2.96466577
  eigenvalues    EBANDS =     -1709.33059779
  atomic energy  EATOM  =     47931.53331682
  Solvation  Ediel_sol  =         0.00000000
  ---------------------------------------------------
  free energy    TOTEN  =      -487.27697493 eV

  energy without entropy =     -484.31230916  energy(sigma->0) =     -485.79464204


--------------------------------------------------------------------------------------------------------




--------------------------------------- Iteration      1(  12)  ---------------------------------------


    POTLOK:  cpu time    0.1828: real time    0.1960
    SETDIJ:  cpu time    0.0106: real time    0.0106
    EDDIAG:  cpu time    0.2879: real time    0.2880
  RMM-DIIS:  cpu time    1.4261: real time    1.4264
    ORTHCH:  cpu time    0.0610: real time    0.0610
       DOS:  cpu time    0.0025: real time    0.0025
    CHARGE:  cpu time    0.1055: real time    0.1055
    MIXING:  cpu time    0.0040: real time    0.0040
    --------------------------------------------
      LOOP:  cpu time    2.0804: real time    2.0941

 eigenvalue-minimisations  :   704
 total energy-change (2. order) :-0.3970993E+01  (-0.2074343E+01)
 number of electron     574.0000090 magnetization 
 augmentation part      301.3605990 magnetization 

 Broyden mixing:
  rms(total) = 0.43025E+01    rms(broyden)= 0.43023E+01
  rms(prec ) = 0.49564E+01
  weight for this iteration     100.00

 eigenvalues of (default mixing * dielectric matrix)
  average eigenvalue GAMMA=   0.3633
  1.7763  0.2125  0.2125  0.1107  0.0984  0.0560  0.0766

 Free energy of the ion-electron system (eV)
  ---------------------------------------------------
  alpha Z        PSCENC =      1548.06572579
  Ewald energy   TEWEN  =    175195.75680742
  -Hartree energ DENC   =   -222700.17896277
  -exchange      EXHF   =         0.00000000
  -V(xc)+E(xc)   XCENC  =       769.75602509
  PAW double counting   =     53555.56041880   -55062.42188930
  entropy T*S    EENTRO =        -2.81894071
  eigenvalues    EBANDS =     -1726.50046908
  atomic energy  EATOM  =     47931.53331682
  Solvation  Ediel_sol  =         0.00000000
  ---------------------------------------------------
  free energy    TOTEN  =      -491.24796796 eV

  energy without entropy =     -488.42902724  energy(sigma->0) =     -489.83849760


--------------------------------------------------------------------------------------------------------




--------------------------------------- Iteration      1(  13)  ---------------------------------------


    POTLOK:  cpu time    0.1856: real time    0.1972
    SETDIJ:  cpu time    0.0106: real time    0.0106
    EDDIAG:  cpu time    0.3067: real time    0.3068
  RMM-DIIS:  cpu time    1.3985: real time    1.3996
    ORTHCH:  cpu time    0.0613: real time    0.0613
       DOS:  cpu time    0.0024: real time    0.0024
    CHARGE:  cpu time    0.1050: real time    0.1050
    MIXING:  cpu time    0.0041: real time    0.0041
    --------------------------------------------
      LOOP:  cpu time    2.0733: real time    2.0869

 eigenvalue-minimisations  :   696
 total energy-change (2. order) :-0.5356357E+00  (-0.1796728E+01)
 number of electron     574.0000093 magnetization 
 augmentation part      301.2046859 magnetization 

 Broyden mixing:
  rms(total) = 0.46073E+01    rms(broyden)= 0.46071E+01
  rms(prec ) = 0.52830E+01
  weight for this iteration     100.00

 eigenvalues of (default mixing * dielectric matrix)
  average eigenvalue GAMMA=   0.3693
  2.0400  0.2935  0.1643  0.1457  0.1034  0.0559  0.0796  0.0717

 Free energy of the ion-electron system (eV)
  ---------------------------------------------------
  alpha Z        PSCENC =      1548.06572579
  Ewald energy   TEWEN  =    175195.75680742
  -Hartree energ DENC   =   -222703.58537665
  -exchange      EXHF   =         0.00000000
  -V(xc)+E(xc)   XCENC  =       770.38033940
  PAW double counting   =     53407.07067042   -54913.31388274
  entropy T*S    EENTRO =        -2.77384156
  eigenvalues    EBANDS =     -1724.91736259
  atomic energy  EATOM  =     47931.53331682
  Solvation  Ediel_sol  =         0.00000000
  ---------------------------------------------------
  free energy    TOTEN  =      -491.78360370 eV

  energy without entropy =     -489.00976214  energy(sigma->0) =     -490.39668292


--------------------------------------------------------------------------------------------------------




--------------------------------------- Iteration      1(  14)  ---------------------------------------


    POTLOK:  cpu time    0.1825: real time    0.1966
    SETDIJ:  cpu time    0.0105: real time    0.0105
    EDDIAG:  cpu time    0.2870: real time    0.2871
  RMM-DIIS:  cpu time    1.4084: real time    1.4088
    ORTHCH:  cpu time    0.0602: real time    0.0602
       DOS:  cpu time    0.0031: real time    0.0031
    CHARGE:  cpu time    0.1047: real time    0.1047
    MIXING:  cpu time    0.0043: real time    0.0043
    --------------------------------------------
      LOOP:  cpu time    2.0609: real time    2.0754

 eigenvalue-minimisations  :   694
 total energy-change (2. order) : 0.6460384E+01  (-0.8100795E+00)
 number of electron     574.0000092 magnetization 
 augmentation part      300.2953223 magnetization 

 Broyden mixing:
  rms(total) = 0.27240E+01    rms(broyden)= 0.27237E+01
  rms(prec ) = 0.31374E+01
  weight for this iteration     100.00

 eigenvalues of (default mixing * dielectric matrix)
  average eigenvalue GAMMA=   0.3573
  2.1331  0.3557  0.1636  0.1636  0.1116  0.0839  0.0839  0.0560  0.0638

 Free energy of the ion-electron system (eV)
  ---------------------------------------------------
  alpha Z        PSCENC =      1548.06572579
  Ewald energy   TEWEN  =    175195.75680742
  -Hartree energ DENC   =   -222723.42477877
  -exchange      EXHF   =         0.00000000
  -V(xc)+E(xc)   XCENC  =       771.00034416
  PAW double counting   =     53361.30631197   -54870.27350019
  entropy T*S    EENTRO =        -3.10385822
  eigenvalues    EBANDS =     -1696.18358852
  atomic energy  EATOM  =     47931.53331682
  Solvation  Ediel_sol  =         0.00000000
  ---------------------------------------------------
  free energy    TOTEN  =      -485.32321954 eV

  energy without entropy =     -482.21936132  energy(sigma->0) =     -483.77129043


--------------------------------------------------------------------------------------------------------




--------------------------------------- Iteration      1(  15)  ---------------------------------------


    POTLOK:  cpu time    0.1828: real time    0.1955
    SETDIJ:  cpu time    0.0106: real time    0.0106
    EDDIAG:  cpu time    0.2871: real time    0.2871
  RMM-DIIS:  cpu time    1.3978: real time    1.3983
    ORTHCH:  cpu time    0.0606: real time    0.0606
       DOS:  cpu time    0.0026: real time    0.0026
    CHARGE:  cpu time    0.1053: real time    0.1061
    MIXING:  cpu time    0.0044: real time    0.0044
    --------------------------------------------
      LOOP:  cpu time    2.0513: real time    2.0652

 eigenvalue-minimisations  :   697
 total energy-change (2. order) : 0.2198364E+01  (-0.3650854E+00)
 number of electron     574.0000089 magnetization 
 augmentation part      299.9024430 magnetization 

 Broyden mixing:
  rms(total) = 0.14641E+01    rms(broyden)= 0.14639E+01
  rms(prec ) = 0.16942E+01
  weight for this iteration     100.00

 eigenvalues of (default mixing * dielectric matrix)
  average eigenvalue GAMMA=   0.3628
  2.2527  0.4786  0.1931  0.1931  0.1243  0.1124  0.0867  0.0720  0.0559  0.0594

 Free energy of the ion-electron system (eV)
  ---------------------------------------------------
  alpha Z        PSCENC =      1548.06572579
  Ewald energy   TEWEN  =    175195.75680742
  -Hartree energ DENC   =   -222730.56703958
  -exchange      EXHF   =         0.00000000
  -V(xc)+E(xc)   XCENC  =       771.23330917
  PAW double counting   =     53340.28508003   -54850.51717340
  entropy T*S    EENTRO =        -3.21697202
  eigenvalues    EBANDS =     -1685.69790926
  atomic energy  EATOM  =     47931.53331682
  Solvation  Ediel_sol  =         0.00000000
  ---------------------------------------------------
  free energy    TOTEN  =      -483.12485505 eV

  energy without entropy =     -479.90788302  energy(sigma->0) =     -481.51636904


--------------------------------------------------------------------------------------------------------




--------------------------------------- Iteration      1(  16)  ---------------------------------------


    POTLOK:  cpu time    0.1853: real time    0.1991
    SETDIJ:  cpu time    0.0106: real time    0.0106
    EDDIAG:  cpu time    0.2900: real time    0.2900
  RMM-DIIS:  cpu time    1.4940: real time    1.4951
    ORTHCH:  cpu time    0.0617: real time    0.0617
       DOS:  cpu time    0.0023: real time    0.0023
    CHARGE:  cpu time    0.1058: real time    0.1062
    MIXING:  cpu time    0.0047: real time    0.0047
    --------------------------------------------
      LOOP:  cpu time    2.1544: real time    2.1697

 eigenvalue-minimisations  :   738
 total energy-change (2. order) : 0.1719710E-01  (-0.2213758E+00)
 number of electron     574.0000090 magnetization 
 augmentation part      300.1488353 magnetization 

 Broyden mixing:
  rms(total) = 0.14285E+01    rms(broyden)= 0.14284E+01
  rms(prec ) = 0.16088E+01
  weight for this iteration     100.00

 eigenvalues of (default mixing * dielectric matrix)
  average eigenvalue GAMMA=   0.3737
  2.3836  0.6957  0.2110  0.2110  0.1237  0.1237  0.0922  0.0781  0.0755  0.0561
  0.0598

 Free energy of the ion-electron system (eV)
  ---------------------------------------------------
  alpha Z        PSCENC =      1548.06572579
  Ewald energy   TEWEN  =    175195.75680742
  -Hartree energ DENC   =   -222721.47311363
  -exchange      EXHF   =         0.00000000
  -V(xc)+E(xc)   XCENC  =       770.94564606
  PAW double counting   =     53274.81805550   -54782.40369778
  entropy T*S    EENTRO =        -3.22472521
  eigenvalues    EBANDS =     -1697.12567291
  atomic energy  EATOM  =     47931.53331682
  Solvation  Ediel_sol  =         0.00000000
  ---------------------------------------------------
  free energy    TOTEN  =      -483.10765795 eV

  energy without entropy =     -479.88293273  energy(sigma->0) =     -481.49529534


--------------------------------------------------------------------------------------------------------




--------------------------------------- Iteration      1(  17)  ---------------------------------------


    POTLOK:  cpu time    0.1860: real time    0.1988
    SETDIJ:  cpu time    0.0105: real time    0.0105
    EDDIAG:  cpu time    0.2904: real time    0.2904
  RMM-DIIS:  cpu time    1.4560: real time    1.4567
    ORTHCH:  cpu time    0.0612: real time    0.0612
       DOS:  cpu time    0.0023: real time    0.0023
    CHARGE:  cpu time    0.1055: real time    0.1055
    MIXING:  cpu time    0.0048: real time    0.0048
    --------------------------------------------
      LOOP:  cpu time    2.1168: real time    2.1302

 eigenvalue-minimisations  :   724
 total energy-change (2. order) : 0.1936081E+00  (-0.1172868E+00)
 number of electron     574.0000091 magnetization 
 augmentation part      300.2444058 magnetization 

 Broyden mixing:
  rms(total) = 0.11572E+01    rms(broyden)= 0.11571E+01
  rms(prec ) = 0.13343E+01
  weight for this iteration     100.00

 eigenvalues of (default mixing * dielectric matrix)
  average eigenvalue GAMMA=   0.3666
  2.4562  0.7768  0.2213  0.2213  0.1337  0.1337  0.1151  0.0867  0.0756  0.0656
  0.0562  0.0571

 Free energy of the ion-electron system (eV)
  ---------------------------------------------------
  alpha Z        PSCENC =      1548.06572579
  Ewald energy   TEWEN  =    175195.75680742
  -Hartree energ DENC   =   -222723.23335817
  -exchange      EXHF   =         0.00000000
  -V(xc)+E(xc)   XCENC  =       770.65996235
  PAW double counting   =     53205.82572156   -54710.99070487
  entropy T*S    EENTRO =        -3.21665172
  eigenvalues    EBANDS =     -1697.31486897
  atomic energy  EATOM  =     47931.53331682
  Solvation  Ediel_sol  =         0.00000000
  ---------------------------------------------------
  free energy    TOTEN  =      -482.91404981 eV

  energy without entropy =     -479.69739808  energy(sigma->0) =     -481.30572394


--------------------------------------------------------------------------------------------------------




--------------------------------------- Iteration      1(  18)  ---------------------------------------


    POTLOK:  cpu time    0.1868: real time    0.1999
    SETDIJ:  cpu time    0.0107: real time    0.0107
    EDDIAG:  cpu time    0.2905: real time    0.2905
  RMM-DIIS:  cpu time    1.5039: real time    1.5042
    ORTHCH:  cpu time    0.0596: real time    0.0596
       DOS:  cpu time    0.0039: real time    0.0039
    CHARGE:  cpu time    0.1060: real time    0.1060
    MIXING:  cpu time    0.0049: real time    0.0049
    --------------------------------------------
      LOOP:  cpu time    2.1670: real time    2.1796

 eigenvalue-minimisations  :   745
 total energy-change (2. order) : 0.2982664E+00  (-0.6122177E-01)
 number of electron     574.0000089 magnetization 
 augmentation part      300.2269686 magnetization 

 Broyden mixing:
  rms(total) = 0.77224E+00    rms(broyden)= 0.77219E+00
  rms(prec ) = 0.86844E+00
  weight for this iteration     100.00

 eigenvalues of (default mixing * dielectric matrix)
  average eigenvalue GAMMA=   0.3609
  2.4770  0.8005  0.2795  0.2795  0.1546  0.1546  0.1167  0.0899  0.0899  0.0708
  0.0564  0.0623  0.0592

 Free energy of the ion-electron system (eV)
  ---------------------------------------------------
  alpha Z        PSCENC =      1548.06572579
  Ewald energy   TEWEN  =    175195.75680742
  -Hartree energ DENC   =   -222723.78393973
  -exchange      EXHF   =         0.00000000
  -V(xc)+E(xc)   XCENC  =       770.63969293
  PAW double counting   =     53178.63829884   -54683.27015413
  entropy T*S    EENTRO =        -3.25345136
  eigenvalues    EBANDS =     -1696.94208002
  atomic energy  EATOM  =     47931.53331682
  Solvation  Ediel_sol  =         0.00000000
  ---------------------------------------------------
  free energy    TOTEN  =      -482.61578345 eV

  energy without entropy =     -479.36233209  energy(sigma->0) =     -480.98905777


--------------------------------------------------------------------------------------------------------




--------------------------------------- Iteration      1(  19)  ---------------------------------------


    POTLOK:  cpu time    0.1841: real time    0.1989
    SETDIJ:  cpu time    0.0110: real time    0.0110
    EDDIAG:  cpu time    0.2897: real time    0.2897
  RMM-DIIS:  cpu time    1.5066: real time    1.5073
    ORTHCH:  cpu time    0.0615: real time    0.0616
       DOS:  cpu time    0.0026: real time    0.0026
    CHARGE:  cpu time    0.1052: real time    0.1052
    MIXING:  cpu time    0.0050: real time    0.0050
    --------------------------------------------
      LOOP:  cpu time    2.1649: real time    2.1813

 eigenvalue-minimisations  :   751
 total energy-change (2. order) :-0.1087763E+00  (-0.5180867E-01)
 number of electron     574.0000090 magnetization 
 augmentation part      300.2233653 magnetization 

 Broyden mixing:
  rms(total) = 0.98385E+00    rms(broyden)= 0.98382E+00
  rms(prec ) = 0.11248E+01
  weight for this iteration     100.00

 eigenvalues of (default mixing * dielectric matrix)
  average eigenvalue GAMMA=   0.3660
  2.4861  0.8504  0.4139  0.4139  0.1681  0.1681  0.1106  0.1106  0.0864  0.0731
  0.0731  0.0596  0.0554  0.0554

 Free energy of the ion-electron system (eV)
  ---------------------------------------------------
  alpha Z        PSCENC =      1548.06572579
  Ewald energy   TEWEN  =    175195.75680742
  -Hartree energ DENC   =   -222724.37605931
  -exchange      EXHF   =         0.00000000
  -V(xc)+E(xc)   XCENC  =       770.68340887
  PAW double counting   =     53165.43660835   -54669.87426594
  entropy T*S    EENTRO =        -3.28781549
  eigenvalues    EBANDS =     -1696.66228626
  atomic energy  EATOM  =     47931.53331682
  Solvation  Ediel_sol  =         0.00000000
  ---------------------------------------------------
  free energy    TOTEN  =      -482.72455975 eV

  energy without entropy =     -479.43674426  energy(sigma->0) =     -481.08065200


--------------------------------------------------------------------------------------------------------




--------------------------------------- Iteration      1(  20)  ---------------------------------------


[...]
     -5.032083  8.749923  2.059207            0           0           0  
      0.023009  0.017188  8.104899            0           0           0  
      0.005743  8.726069  2.044661            0           0           0  
      0.021722  8.639559  8.053144            0           0           0  
      2.476647  8.725920  2.008210            0           0           0  
      2.568068  8.725085  8.125821            0           0           0  
      1.238907  2.217482  2.058803            0           0           0  
      1.265236  2.178627  8.125591            0           0           0  
      0.080741  1.414191  4.053211            0           0           0  
      2.493295  1.454508  4.148294            0           0           0  
      1.298127  0.730969  6.166345            0           0           0  
      5.061665  1.449298  4.134981            0           0           0  
      3.816131  0.768989  6.119246            0           0           0  
      7.515570  1.458116  4.110014            0           0           0  
      6.275089  0.741086  6.121168            0           0           0  
     -2.550623  4.473994  2.009954            0           0           0  
     -2.521176  4.406169  7.998024            0           0           0  
      0.030138  4.429053  2.070202            0           0           0  
      0.019541  4.295859  8.172647            0           0           0  
      2.508468  4.405164  2.074349            0           0           0  
      2.535213  4.358316  8.019846            0           0           0  
      1.321393  3.641455  4.027713            0           0           0  
      5.083819  4.448896  2.048149            0           0           0  
      5.062547  4.343109  8.418523            0           0           0  
      3.793772  3.697998  4.130706            0           0           0  
      2.572724  2.882966  6.093125            0           0           0  
      6.252931  3.649555  4.083048            0           0           0  
      5.071308  3.000668  6.217052            0           0           0  
      6.251940  6.541671  2.035474            0           0           0  
     -3.751541  6.628858  8.257081            0           0           0  
     -1.231329  6.529507  2.063609            0           0           0  
     -1.249292  6.557959  8.261847            0           0           0  
     -2.521724  5.874752  4.087450            0           0           0  
      1.284263  6.559439  2.074094            0           0           0  
      1.294831  6.534900  8.166360            0           0           0  
     -0.006259  5.791447  4.044577            0           0           0  
     -1.225621  5.080532  6.091163            0           0           0  
      3.776284  6.555708  2.000001            0           0           0  
      3.750573  6.589391  8.204442            0           0           0  
      2.523868  5.788006  4.073096            0           0           0  
      5.067337  5.797043  4.105165            0           0           0  
      3.771038  5.117606  6.144470            0           0           0  
      6.294318  5.137551  6.148647            0           0           0  
     -3.762957  8.024455  4.119563            0           0           0  
     -1.337071  8.050437  4.103081            0           0           0  
     -2.503418  7.302590  6.247064            0           0           0  
      2.486385  7.275728  6.108442            0           0           0  
      5.012558  7.325946  6.131537            0           0           0  
     -2.526901  8.740562  2.033028            0           0           0  
     -2.486086  8.726615  8.248378            0           0           0  
     -1.249535  2.186973  2.054039            0           0           0  
     -1.197650  2.210078  8.102577            0           0           0  
      3.776871  2.203480  2.028243            0           0           0  
      3.797469  2.142474  8.279564            0           0           0  
      6.310522  2.195476  2.035857            0           0           0  
      6.368522  2.109018  8.266353            0           0           0  
      8.836550  0.726896  6.076124            0           0           0  
     -1.273378  3.652340  4.088535            0           0           0  
      0.022991  2.898966  6.083477            0           0           0  
      7.566626  2.891669  6.094469            0           0           0  
      1.260004  5.088841  6.080947            0           0           0  
      1.256598  8.014945  4.091938            0           0           0  
     -0.006588  7.262350  6.087211            0           0           0  
      3.809188  8.008833  4.091746            0           0           0  
      5.037226  5.935937  9.358169            0           0           0  
      2.337882  1.466738  9.342891            0           0           0  
      0.046649  5.737240  9.320674            0           0           0  
      7.788210  1.308429  9.295784            0           0           0  
      5.103061  2.872014  9.421818     0.020199   -0.503531    0.863741  
 
   2 f  =   11.824802 THz    74.297421 2PiTHz  394.432919 cm-1    48.903467 meV
             X         Y         Z           dx          dy          dz
     -5.032083  8.749923  2.059207            0           0           0  
      0.023009  0.017188  8.104899            0           0           0  
      0.005743  8.726069  2.044661            0           0           0  
      0.021722  8.639559  8.053144            0           0           0  
      2.476647  8.725920  2.008210            0           0           0  
      2.568068  8.725085  8.125821            0           0           0  
      1.238907  2.217482  2.058803            0           0           0  
      1.265236  2.178627  8.125591            0           0           0  
      0.080741  1.414191  4.053211            0           0           0  
      2.493295  1.454508  4.148294            0           0           0  
      1.298127  0.730969  6.166345            0           0           0  
      5.061665  1.449298  4.134981            0           0           0  
      3.816131  0.768989  6.119246            0           0           0  
      7.515570  1.458116  4.110014            0           0           0  
      6.275089  0.741086  6.121168            0           0           0  
     -2.550623  4.473994  2.009954            0           0           0  
     -2.521176  4.406169  7.998024            0           0           0  
      0.030138  4.429053  2.070202            0           0           0  
      0.019541  4.295859  8.172647            0           0           0  
      2.508468  4.405164  2.074349            0           0           0  
      2.535213  4.358316  8.019846            0           0           0  
      1.321393  3.641455  4.027713            0           0           0  
      5.083819  4.448896  2.048149            0           0           0  
      5.062547  4.343109  8.418523            0           0           0  
      3.793772  3.697998  4.130706            0           0           0  
      2.572724  2.882966  6.093125            0           0           0  
      6.252931  3.649555  4.083048            0           0           0  
      5.071308  3.000668  6.217052            0           0           0  
      6.251940  6.541671  2.035474            0           0           0  
     -3.751541  6.628858  8.257081            0           0           0  
     -1.231329  6.529507  2.063609            0           0           0  
     -1.249292  6.557959  8.261847            0           0           0  
     -2.521724  5.874752  4.087450            0           0           0  
      1.284263  6.559439  2.074094            0           0           0  
      1.294831  6.534900  8.166360            0           0           0  
     -0.006259  5.791447  4.044577            0           0           0  
     -1.225621  5.080532  6.091163            0           0           0  
      3.776284  6.555708  2.000001            0           0           0  
      3.750573  6.589391  8.204442            0           0           0  
      2.523868  5.788006  4.073096            0           0           0  
      5.067337  5.797043  4.105165            0           0           0  
      3.771038  5.117606  6.144470            0           0           0  
      6.294318  5.137551  6.148647            0           0           0  
     -3.762957  8.024455  4.119563            0           0           0  
     -1.337071  8.050437  4.103081            0           0           0  
     -2.503418  7.302590  6.247064            0           0           0  
      2.486385  7.275728  6.108442            0           0           0  
      5.012558  7.325946  6.131537            0           0           0  
     -2.526901  8.740562  2.033028            0           0           0  
     -2.486086  8.726615  8.248378            0           0           0  
     -1.249535  2.186973  2.054039            0           0           0  
     -1.197650  2.210078  8.102577            0           0           0  
      3.776871  2.203480  2.028243            0           0           0  
      3.797469  2.142474  8.279564            0           0           0  
      6.310522  2.195476  2.035857            0           0           0  
      6.368522  2.109018  8.266353            0           0           0  
      8.836550  0.726896  6.076124            0           0           0  
     -1.273378  3.652340  4.088535            0           0           0  
      0.022991  2.898966  6.083477            0           0           0  
      7.566626  2.891669  6.094469            0           0           0  
      1.260004  5.088841  6.080947            0           0           0  
      1.256598  8.014945  4.091938            0           0           0  
     -0.006588  7.262350  6.087211            0           0           0  
      3.809188  8.008833  4.091746            0           0           0  
      5.037226  5.935937  9.358169            0           0           0  
      2.337882  1.466738  9.342891            0           0           0  
      0.046649  5.737240  9.320674            0           0           0  
      7.788210  1.308429  9.295784            0           0           0  
      5.103061  2.872014  9.421818    -0.314347    0.816907    0.483579  
 
   3 f  =   10.938383 THz    68.727889 2PiTHz  364.865179 cm-1    45.237533 meV
             X         Y         Z           dx          dy          dz
     -5.032083  8.749923  2.059207            0           0           0  
      0.023009  0.017188  8.104899            0           0           0  
      0.005743  8.726069  2.044661            0           0           0  
      0.021722  8.639559  8.053144            0           0           0  
      2.476647  8.725920  2.008210            0           0           0  
      2.568068  8.725085  8.125821            0           0           0  
      1.238907  2.217482  2.058803            0           0           0  
      1.265236  2.178627  8.125591            0           0           0  
      0.080741  1.414191  4.053211            0           0           0  
      2.493295  1.454508  4.148294            0           0           0  
      1.298127  0.730969  6.166345            0           0           0  
      5.061665  1.449298  4.134981            0           0           0  
      3.816131  0.768989  6.119246            0           0           0  
      7.515570  1.458116  4.110014            0           0           0  
      6.275089  0.741086  6.121168            0           0           0  
     -2.550623  4.473994  2.009954            0           0           0  
     -2.521176  4.406169  7.998024            0           0           0  
      0.030138  4.429053  2.070202            0           0           0  
      0.019541  4.295859  8.172647            0           0           0  
      2.508468  4.405164  2.074349            0           0           0  
      2.535213  4.358316  8.019846            0           0           0  
      1.321393  3.641455  4.027713            0           0           0  
      5.083819  4.448896  2.048149            0           0           0  
      5.062547  4.343109  8.418523            0           0           0  
      3.793772  3.697998  4.130706            0           0           0  
      2.572724  2.882966  6.093125            0           0           0  
      6.252931  3.649555  4.083048            0           0           0  
      5.071308  3.000668  6.217052            0           0           0  
      6.251940  6.541671  2.035474            0           0           0  
     -3.751541  6.628858  8.257081            0           0           0  
     -1.231329  6.529507  2.063609            0           0           0  
     -1.249292  6.557959  8.261847            0           0           0  
     -2.521724  5.874752  4.087450            0           0           0  
      1.284263  6.559439  2.074094            0           0           0  
      1.294831  6.534900  8.166360            0           0           0  
     -0.006259  5.791447  4.044577            0           0           0  
     -1.225621  5.080532  6.091163            0           0           0  
      3.776284  6.555708  2.000001            0           0           0  
      3.750573  6.589391  8.204442            0           0           0  
      2.523868  5.788006  4.073096            0           0           0  
      5.067337  5.797043  4.105165            0           0           0  
      3.771038  5.117606  6.144470            0           0           0  
      6.294318  5.137551  6.148647            0           0           0  
     -3.762957  8.024455  4.119563            0           0           0  
     -1.337071  8.050437  4.103081            0           0           0  
     -2.503418  7.302590  6.247064            0           0           0  
      2.486385  7.275728  6.108442            0           0           0  
      5.012558  7.325946  6.131537            0           0           0  
     -2.526901  8.740562  2.033028            0           0           0  
     -2.486086  8.726615  8.248378            0           0           0  
     -1.249535  2.186973  2.054039            0           0           0  
     -1.197650  2.210078  8.102577            0           0           0  
      3.776871  2.203480  2.028243            0           0           0  
      3.797469  2.142474  8.279564            0           0           0  
      6.310522  2.195476  2.035857            0           0           0  
      6.368522  2.109018  8.266353            0           0           0  
      8.836550  0.726896  6.076124            0           0           0  
     -1.273378  3.652340  4.088535            0           0           0  
      0.022991  2.898966  6.083477            0           0           0  
      7.566626  2.891669  6.094469            0           0           0  
      1.260004  5.088841  6.080947            0           0           0  
      1.256598  8.014945  4.091938            0           0           0  
     -0.006588  7.262350  6.087211            0           0           0  
      3.809188  8.008833  4.091746            0           0           0  
      5.037226  5.935937  9.358169            0           0           0  
      2.337882  1.466738  9.342891            0           0           0  
      0.046649  5.737240  9.320674            0           0           0  
      7.788210  1.308429  9.295784            0           0           0  
      5.103061  2.872014  9.421818     0.949093    0.281282    0.141783  
 
 Finite differences POTIM=  1.500000000000000E-002
     LOOP+:  cpu time   52.8402: real time   53.5047
    4ORBIT:  cpu time    0.0000: real time    0.0000
 


 total charge     
 
# of ion       s       p       d       tot
------------------------------------------
    1        0.467   0.360   6.254   7.080
    2        0.454   0.362   6.307   7.124
    3        0.458   0.349   6.248   7.056
    4        0.468   0.368   6.304   7.140
    5        0.452   0.348   6.241   7.041
    6        0.492   0.547   6.298   7.338
    7        0.469   0.367   6.264   7.100
    8        0.503   0.556   6.315   7.374
    9        0.475   0.496   6.262   7.232
   10        0.491   0.518   6.278   7.288
   11        0.485   0.517   6.274   7.276
   12        0.475   0.496   6.258   7.229
   13        0.484   0.512   6.271   7.266
   14        0.461   0.468   6.262   7.191
   15        0.480   0.507   6.266   7.253
   16        0.461   0.353   6.250   7.064
   17        0.472   0.366   6.296   7.134
   18        0.481   0.393   6.263   7.137
   19        0.467   0.500   6.292   7.259
   20        0.487   0.396   6.266   7.149
   21        0.474   0.382   6.302   7.158
   22        0.488   0.530   6.275   7.293
   23        0.477   0.382   6.260   7.118
   24        0.469   0.587   6.326   7.382
   25        0.487   0.527   6.269   7.284
   26        0.487   0.527   6.276   7.289
   27        0.474   0.501   6.255   7.230
   28        0.464   0.486   6.263   7.214
   29        0.480   0.386   6.258   7.124
   30        0.464   0.494   6.272   7.230
   31        0.481   0.386   6.259   7.126
   32        0.462   0.490   6.278   7.230
   33        0.480   0.509   6.251   7.240
   34        0.489   0.408   6.261   7.158
   35        0.464   0.499   6.284   7.246
   36        0.483   0.515   6.275   7.273
   37        0.470   0.493   6.261   7.224
   38        0.471   0.380   6.248   7.099
   39        0.475   0.507   6.286   7.268
   40        0.485   0.521   6.273   7.279
   41        0.487   0.518   6.271   7.277
   42        0.490   0.523   6.270   7.283
   43        0.476   0.504   6.255   7.235
   44        0.481   0.515   6.259   7.255
   45        0.473   0.503   6.255   7.231
   46        0.475   0.495   6.262   7.233
   47        0.477   0.495   6.274   7.245
   48        0.473   0.504   6.249   7.226
   49        0.504   0.365   8.297   9.167
   50        0.509   0.518   8.309   9.336
   51        0.499   0.353   8.300   9.151
   52        0.502   0.511   8.320   9.333
   53        0.489   0.340   8.302   9.131
   54        0.464   0.557   8.326   9.346
   55        0.501   0.355   8.300   9.156
   56        0.462   0.550   8.326   9.337
   57        0.507   0.505   8.301   9.313
   58        0.501   0.492   8.294   9.287
   59        0.507   0.500   8.321   9.328
   60        0.507   0.497   8.313   9.317
   61        0.520   0.530   8.296   9.346
   62        0.512   0.518   8.288   9.318
   63        0.515   0.522   8.299   9.335
   64        0.505   0.500   8.292   9.296
   65        1.584   3.357   0.000   4.941
   66        1.586   3.336   0.000   4.922
   67        1.583   3.351   0.000   4.933
   68        1.586   3.329   0.000   4.915
   69        1.587   3.338   0.000   4.925
--------------------------------------------------
tot         38.765  46.670 433.879 519.313
 

 total amount of memory used by VASP MPI-rank0    54174. kBytes
=======================================================================

   base      :      30000. kBytes
   nonlr-proj:       4259. kBytes
   fftplans  :       5965. kBytes
   grid      :      11929. kBytes
   one-center:         23. kBytes
   wavefun   :       1998. kBytes
 
  
  
 General timing and accounting informations for this job:
 ========================================================
  
                  Total CPU time used (sec):      450.897
                            User time (sec):      442.671
                          System time (sec):        8.226
                         Elapsed time (sec):      455.386
  
                   Maximum memory used (kb):      293248.
                   Average memory used (kb):           0.
  
                          Minor page faults:      2325172
                          Major page faults:            8
                 Voluntary context switches:         1737
