 vasp.5.4.4.18Apr17-6-g9f103f2a35 (build Dec 15 2018 21:27:11) complex          
  
 executed on             LinuxIFC date 2022.02.17  20:38:45
 running on   72 total cores
 distrk:  each k-point on   72 cores,    1 groups
 distr:  one band on NCORES_PER_BAND=  24 cores,    3 groups


--------------------------------------------------------------------------------------------------------


 INCAR:
 POTCAR:    PAW_PBE Ni 02Aug2007                  
 POTCAR:    PAW_PBE O 08Apr2002                   

 ----------------------------------------------------------------------------- 
|                                                                             |
|           W    W    AA    RRRRR   N    N  II  N    N   GGGG   !!!           |
|           W    W   A  A   R    R  NN   N  II  NN   N  G    G  !!!           |
|           W    W  A    A  R    R  N N  N  II  N N  N  G       !!!           |
|           W WW W  AAAAAA  RRRRR   N  N N  II  N  N N  G  GGG   !            |
|           WW  WW  A    A  R   R   N   NN  II  N   NN  G    G                |
|           W    W  A    A  R    R  N    N  II  N    N   GGGG   !!!           |
|                                                                             |
|      For optimal performance we recommend to set                            |
|        NCORE= 4 - approx SQRT( number of cores)                             |
|      NCORE specifies how many cores store one orbital (NPAR=cpu/NCORE).     |
|      This setting can  greatly improve the performance of VASP for DFT.     |
|      The default,   NCORE=1            might be grossly inefficient         |
|      on modern multi-core architectures or massively parallel machines.     |
|      Do your own testing !!!!                                               |
|      Unfortunately you need to use the default for GW and RPA calculations. |
|      (for HF NCORE is supported but not extensively tested yet)             |
|                                                                             |
 ----------------------------------------------------------------------------- 

 POTCAR:    PAW_PBE Ni 02Aug2007                  
   VRHFIN =Ni:                                                                  
   LEXCH  = PE                                                                  
   EATOM  =  1077.6739 eV,   79.2068 Ry                                         
                                                                                
   TITEL  = PAW_PBE Ni 02Aug2007                                                
   LULTRA =        F    use ultrasoft PP ?                                      
   IUNSCR =        1    unscreen: 0-lin 1-nonlin 2-no                           
   RPACOR =    2.000    partial core radius                                     
   POMASS =   58.690; ZVAL   =   10.000    mass and valenz                      
   RCORE  =    2.300    outmost cutoff radius                                   
   RWIGS  =    2.430; RWIGS  =    1.286    wigner-seitz radius (au A)           
   ENMAX  =  269.532; ENMIN  =  202.149 eV                                      
   RCLOC  =    1.201    cutoff for local pot                                    
   LCOR   =        T    correct aug charges                                     
   LPAW   =        T    paw PP                                                  
   EAUG   =  544.565                                                            
   DEXC   =    0.000                                                            
   RMAX   =    2.357    core radius for proj-oper                               
   RAUG   =    1.300    factor for augmentation sphere                          
   RDEP   =    2.390    radius for radial grids                                 
   RDEPT  =    1.838    core radius for aug-charge                              
                                                                                
   Atomic configuration                                                         
    9 entries                                                                   
     n  l   j            E        occ.                                          
     1  0  0.50     -8206.4253   2.0000                                         
     2  0  0.50      -976.1748   2.0000                                         
     2  1  1.50      -839.0571   6.0000                                         
     3  0  0.50      -105.9991   2.0000                                         
     3  1  1.50       -66.4603   6.0000                                         
     3  2  2.50        -4.6458   9.0000                                         
     4  0  0.50        -4.4926   1.0000                                         
     4  1  1.50        -4.0817   0.0000                                         
     4  3  2.50        -1.3606   0.0000                                         
   Description                                                                  
     l       E           TYP  RCUT    TYP  RCUT                                 
     2     -4.6457903     23  2.300                                             
     2     -6.0063729     23  2.300                                             
     0     -4.4925590     23  2.300                                             
     0      5.0102601     23  2.300                                             
     1     -2.7211652     23  2.300                                             
     1     16.5183231     23  2.300                                             
  local pseudopotential read in
  partial core-charges read in
  partial kinetic energy density read in
  atomic valenz-charges read in
  non local Contribution for L=           2  read in
    real space projection operators read in
  non local Contribution for L=           2  read in
    real space projection operators read in
  non local Contribution for L=           0  read in
    real space projection operators read in
  non local Contribution for L=           0  read in
    real space projection operators read in
  non local Contribution for L=           1  read in
    real space projection operators read in
  non local Contribution for L=           1  read in
    real space projection operators read in
    PAW grid and wavefunctions read in
 
   number of l-projection  operators is LMAX  =           6
   number of lm-projection operators is LMMAX =          18
 
 POTCAR:    PAW_PBE O 08Apr2002                   
   VRHFIN =O: s2p4                                                              
   LEXCH  = PE                                                                  
   EATOM  =   432.3788 eV,   31.7789 Ry                                         
                                                                                
   TITEL  = PAW_PBE O 08Apr2002                                                 
   LULTRA =        F    use ultrasoft PP ?                                      
   IUNSCR =        1    unscreen: 0-lin 1-nonlin 2-no                           
   RPACOR =    1.200    partial core radius                                     
   POMASS =   16.000; ZVAL   =    6.000    mass and valenz                      
   RCORE  =    1.520    outmost cutoff radius                                   
   RWIGS  =    1.550; RWIGS  =    0.820    wigner-seitz radius (au A)           
   ENMAX  =  400.000; ENMIN  =  300.000 eV                                      
   ICORE  =        2    local potential                                         
   LCOR   =        T    correct aug charges                                     
   LPAW   =        T    paw PP                                                  
   EAUG   =  605.392                                                            
   DEXC   =    0.000                                                            
   RMAX   =    1.553    core radius for proj-oper                               
   RAUG   =    1.300    factor for augmentation sphere                          
   RDEP   =    1.550    radius for radial grids                                 
   RDEPT  =    1.329    core radius for aug-charge                              
                                                                                
   Atomic configuration                                                         
    4 entries                                                                   
     n  l   j            E        occ.                                          
     1  0  0.50      -514.6923   2.0000                                         
     2  0  0.50       -23.9615   2.0000                                         
     2  1  0.50        -9.0305   4.0000                                         
     3  2  1.50        -9.5241   0.0000                                         
   Description                                                                  
     l       E           TYP  RCUT    TYP  RCUT                                 
     0    -23.9615318     23  1.200                                             
     0     -9.5240782     23  1.200                                             
     1     -9.0304911     23  1.520                                             
     1      8.1634956     23  1.520                                             
     2     -9.5240782      7  1.500                                             
  local pseudopotential read in
  partial core-charges read in
  partial kinetic energy density read in
  kinetic energy density of atom read in
  atomic valenz-charges read in
  non local Contribution for L=           0  read in
    real space projection operators read in
  non local Contribution for L=           0  read in
    real space projection operators read in
  non local Contribution for L=           1  read in
    real space projection operators read in
  non local Contribution for L=           1  read in
    real space projection operators read in
    PAW grid and wavefunctions read in
 
   number of l-projection  operators is LMAX  =           4
   number of lm-projection operators is LMMAX =           8
 
 Optimization of the real space projectors (new method)

 maximal supplied QI-value         = 16.25
 optimisation between [QCUT,QGAM] = [ 11.54, 23.24] = [ 37.28,151.24] Ry 
 Optimized for a Real-space Cutoff    1.45 Angstroem

   l    n(q)    QCUT    max X(q) W(low)/X(q) W(high)/X(q)  e(spline) 
   2      9    11.539    60.317    0.19E-03    0.47E-04    0.16E-06
   2      9    11.539    55.921    0.19E-03    0.48E-04    0.16E-06
   0     10    11.539    51.690    0.80E-04    0.50E-04    0.24E-06
   0     10    11.539    30.015    0.73E-04    0.45E-04    0.22E-06
   1     10    11.539    18.849    0.87E-04    0.16E-03    0.71E-07
   1     10    11.539    14.624    0.73E-04    0.13E-03    0.64E-07
 Optimization of the real space projectors (new method)

 maximal supplied QI-value         = 24.76
 optimisation between [QCUT,QGAM] = [ 11.64, 23.27] = [ 37.91,151.63] Ry 
 Optimized for a Real-space Cutoff    1.14 Angstroem

   l    n(q)    QCUT    max X(q) W(low)/X(q) W(high)/X(q)  e(spline) 
   0      8    11.635    20.381    0.10E-03    0.33E-03    0.24E-06
   0      8    11.635    15.268    0.11E-03    0.35E-03    0.26E-06
   1      7    11.635     5.964    0.24E-03    0.31E-03    0.30E-06
   1      7    11.635     5.382    0.22E-03    0.25E-03    0.26E-06
  PAW_PBE Ni 02Aug2007                  :
 energy of atom  1       EATOM=-1077.6739
 kinetic energy error for atom=    0.0030 (will be added to EATOM!!)
  PAW_PBE O 08Apr2002                   :
 energy of atom  2       EATOM= -432.3788
 kinetic energy error for atom=    0.0208 (will be added to EATOM!!)
 
 
 POSCAR: POSCAR                                  
  positions in direct lattice
  velocities in cartesian coordinates
 exchange correlation table for  LEXCH =        8
   RHO(1)=    0.500       N(1)  =     2000
   RHO(2)=  100.500       N(2)  =     4000

 VTST: version 3.2, (02/03/18)

 CHAIN: initializing optimizer
 
 OPT: Using VASP Dynamics algorithm
 CHAIN: Read ICHAIN            0
 
 POSCAR: POSCAR                                  
  positions in direct lattice
  velocities in cartesian coordinates
 


--------------------------------------------------------------------------------------------------------


 ion  position               nearest neighbor table
   1  0.113  0.226  0.095-  15 2.49  19 2.49   3 2.49   5 2.49  13 2.49  17 2.49  21 2.49  49 2.49
                            61 2.49
   2  0.111  0.228  0.383-  65 1.84  14 2.43  18 2.43  20 2.47  22 2.49  62 2.50  24 2.52   4 2.52
                             6 2.55  50 2.55
   3  0.196  0.142  0.191-  24 2.44   4 2.44   8 2.44   5 2.49  49 2.49   1 2.49   7 2.49  15 2.49
                            19 2.49  23 2.49  51 2.49  63 2.49
   4  0.030  0.059  0.285-  62 2.43   3 2.44  63 2.44  15 2.44  24 2.49   8 2.49  52 2.49  20 2.49
                            16 2.50  64 2.50   2 2.52  50 2.52
   5  0.363  0.226  0.095-   3 2.49  23 2.49   7 2.49   9 2.49   1 2.49  21 2.49  25 2.49  49 2.49
                            53 2.49
   6  0.367  0.227  0.383-  65 1.84  10 2.43  26 2.43  28 2.47  54 2.49  22 2.49   8 2.52  24 2.53
                            50 2.55   2 2.55
   7  0.446  0.142  0.191-   8 2.44  12 2.44  28 2.47   9 2.49  53 2.49   5 2.49  11 2.49   3 2.49
                            23 2.49  51 2.49  27 2.49  55 2.49
   8  0.279  0.059  0.285-  54 2.43   3 2.44  51 2.44   7 2.44  24 2.49   4 2.49  52 2.49  28 2.49
                            56 2.50  12 2.50   6 2.52  50 2.52
   9  0.613  0.226  0.095-   7 2.49  27 2.49  11 2.49  13 2.49   5 2.49  25 2.49  29 2.49  53 2.49
                            57 2.49
  10  0.611  0.227  0.383-  68 1.84   6 2.43  26 2.43  28 2.47  54 2.49  30 2.49  12 2.52  32 2.53
                            58 2.55  14 2.55
  11  0.696  0.142  0.191-  32 2.44  16 2.44  12 2.44  13 2.49  57 2.49   9 2.49  15 2.49   7 2.49
                            27 2.49  55 2.49  31 2.49  59 2.49
  12  0.530  0.059  0.285-  54 2.43  11 2.44  55 2.44   7 2.44  16 2.49  32 2.49  60 2.49  28 2.49
                            56 2.50   8 2.50  10 2.52  58 2.53
  13  0.863  0.226  0.095-  11 2.49  31 2.49  15 2.49   9 2.49   1 2.49  29 2.49  17 2.49  57 2.49
                            61 2.49
  14  0.867  0.228  0.383-  68 1.84   2 2.43  18 2.43  20 2.47  30 2.49  62 2.49  16 2.52  32 2.52
                            58 2.55  10 2.55
  15  0.946  0.142  0.191-   4 2.44  16 2.44  20 2.47   1 2.49  61 2.49  13 2.49   3 2.49  11 2.49
                            31 2.49  59 2.49  19 2.49  63 2.49
  16  0.779  0.059  0.285-  62 2.43  11 2.44  59 2.44  15 2.44  32 2.49  12 2.49  60 2.49  20 2.49
                             4 2.50  64 2.50  14 2.52  58 2.53
  17  0.113  0.476  0.095-  31 2.49  35 2.49  19 2.49  21 2.49  29 2.49  13 2.49  33 2.49   1 2.49
                            37 2.49
  18  0.111  0.472  0.383-  67 1.84   2 2.43  14 2.43  20 2.47  22 2.49  30 2.49  40 2.52  36 2.52
                            38 2.55  34 2.55
  19  0.196  0.392  0.191-  40 2.44  24 2.44  20 2.47  21 2.49   1 2.49  17 2.49  31 2.49  23 2.49
                            15 2.49  35 2.49  39 2.49   3 2.49
  20  0.030  0.309  0.286-   2 2.47  14 2.47  18 2.47  19 2.47  15 2.47  31 2.47  40 2.49  36 2.49
                            24 2.49   4 2.49  32 2.49  16 2.49
  21  0.363  0.476  0.095-  19 2.49  39 2.49  23 2.49  25 2.49  17 2.49   5 2.49  37 2.49   1 2.49
                            41 2.49
  22  0.363  0.476  0.377-  24 2.43  44 2.43  40 2.43   2 2.49  18 2.49  42 2.49  26 2.49   6 2.49
                            38 2.50
  23  0.446  0.392  0.191-  24 2.44  44 2.44  28 2.47  25 2.49   5 2.49  21 2.49  19 2.49  27 2.49
                             7 2.49  39 2.49  43 2.49   3 2.49
  24  0.279  0.309  0.285-  22 2.43   3 2.44  23 2.44  19 2.44   8 2.49   4 2.49  28 2.49  20 2.49
                            44 2.50  40 2.50   2 2.52   6 2.53
  25  0.613  0.476  0.095-  23 2.49  43 2.49  27 2.49  29 2.49  21 2.49   9 2.49  41 2.49   5 2.49
                            45 2.49
  26  0.611  0.472  0.383-  66 1.84   6 2.43  10 2.43  28 2.47  22 2.49  30 2.49  44 2.53  48 2.53
                            42 2.55  46 2.55
  27  0.696  0.392  0.191-  48 2.44  32 2.44  28 2.47  29 2.49   9 2.49  25 2.49  23 2.49  31 2.49
                            11 2.49  43 2.49  47 2.49   7 2.49
  28  0.529  0.309  0.286-   6 2.47  10 2.47  26 2.47   7 2.47  27 2.47  23 2.47  24 2.49   8 2.49
                            12 2.49  48 2.49  32 2.49  44 2.49
  29  0.863  0.476  0.095-  27 2.49  47 2.49  31 2.49  25 2.49  17 2.49  13 2.49  33 2.49  45 2.49
                             9 2.49
  30  0.863  0.476  0.377-  32 2.43  48 2.43  36 2.43  14 2.49  18 2.49  46 2.49  26 2.49  10 2.49
                            34 2.49
  31  0.946  0.392  0.191-  36 2.44  32 2.44  20 2.47  17 2.49  13 2.49  29 2.49  27 2.49  19 2.49
                            15 2.49  35 2.49  11 2.49  47 2.49
  32  0.779  0.309  0.285-  30 2.43  11 2.44  31 2.44  27 2.44  16 2.49  12 2.49  28 2.49  20 2.49
                            48 2.50  36 2.50  14 2.52  10 2.53
  33  0.113  0.726  0.095-  47 2.49  51 2.49  35 2.49  37 2.49  45 2.49  29 2.49  49 2.49  17 2.49
                            53 2.49
  34  0.111  0.728  0.383-  67 1.84  46 2.43  50 2.43  52 2.47  54 2.49  30 2.49  36 2.52  56 2.52
                            18 2.55  38 2.55
  35  0.196  0.642  0.191-  56 2.44  36 2.44  40 2.44  37 2.49  17 2.49  33 2.49  47 2.49  39 2.49
                            31 2.49  51 2.49  55 2.49  19 2.49
  36  0.030  0.559  0.285-  30 2.43  35 2.44  31 2.44  47 2.44  56 2.49  40 2.49  20 2.49  52 2.49
                            48 2.50  32 2.50  34 2.52  18 2.52
  37  0.363  0.726  0.095-  35 2.49  55 2.49  39 2.49  41 2.49  33 2.49  21 2.49  53 2.49  17 2.49
                            57 2.49
  38  0.367  0.728  0.383-  67 1.84  42 2.43  58 2.43  60 2.47  54 2.49  22 2.50  40 2.52  56 2.53
                            18 2.55  34 2.55
  39  0.446  0.642  0.191-  40 2.44  44 2.44  60 2.47  41 2.49  21 2.49  37 2.49  35 2.49  43 2.49
                            23 2.49  55 2.49  59 2.49  19 2.49
  40  0.279  0.559  0.285-  22 2.43  35 2.44  19 2.44  39 2.44  56 2.49  36 2.49  60 2.49  20 2.49
                            44 2.50  24 2.50  18 2.52  38 2.52
  41  0.613  0.726  0.095-  39 2.49  59 2.49  43 2.49  45 2.49  37 2.49  25 2.49  57 2.49  21 2.49
                            61 2.49
  42  0.611  0.727  0.383-  66 1.84  38 2.43  58 2.43  60 2.47  22 2.49  62 2.50  44 2.52  64 2.53
                            26 2.55  46 2.55
  43  0.696  0.642  0.191-  64 2.44  48 2.44  44 2.44  45 2.49  25 2.49  41 2.49  39 2.49  47 2.49
                            27 2.49  59 2.49  63 2.49  23 2.49
  44  0.530  0.559  0.285-  22 2.43  43 2.44  23 2.44  39 2.44  48 2.49  64 2.49  28 2.49  60 2.49
                            24 2.50  40 2.50  42 2.52  26 2.53
  45  0.863  0.726  0.095-  43 2.49  63 2.49  47 2.49  41 2.49  33 2.49  29 2.49  49 2.49  61 2.49
                            25 2.49
  46  0.867  0.727  0.383-  66 1.84  34 2.43  50 2.43  52 2.47  62 2.49  30 2.49  48 2.52  64 2.52
                            42 2.55  26 2.55
  47  0.946  0.642  0.191-  36 2.44  48 2.44  52 2.47  33 2.49  29 2.49  45 2.49  43 2.49  35 2.49
                            31 2.49  51 2.49  27 2.49  63 2.49
  48  0.779  0.559  0.285-  30 2.43  43 2.44  27 2.44  47 2.44  44 2.49  64 2.49  28 2.49  52 2.49
                            32 2.50  36 2.50  46 2.52  26 2.53
  49  0.113  0.976  0.095-  63 2.49   3 2.49  51 2.49  61 2.49  53 2.49   1 2.49   5 2.49  33 2.49
                            45 2.49
  50  0.111  0.972  0.383-  65 1.84  34 2.43  46 2.43  52 2.47  62 2.49  54 2.49   4 2.52   8 2.52
                             6 2.55   2 2.55
  51  0.196  0.892  0.191-   8 2.44  56 2.44  52 2.47  53 2.49  33 2.49  49 2.49  55 2.49  63 2.49
                            35 2.49  47 2.49   3 2.49   7 2.49
  52  0.029  0.809  0.286-  34 2.47  50 2.47  46 2.47  47 2.47  63 2.47  51 2.47   8 2.49  64 2.49
                             4 2.49  36 2.49  56 2.49  48 2.49
  53  0.363  0.976  0.095-  51 2.49   7 2.49  55 2.49  49 2.49  57 2.49   5 2.49   9 2.49  33 2.49
                            37 2.49
  54  0.363  0.976  0.377-  56 2.43  12 2.43   8 2.43  34 2.49  38 2.49   6 2.49  10 2.49  50 2.49
                            58 2.50
  55  0.446  0.892  0.191-  12 2.44  56 2.44  60 2.47  57 2.49  37 2.49  53 2.49  59 2.49  51 2.49
                            11 2.49  39 2.49   7 2.49  35 2.49
  56  0.279  0.809  0.285-  54 2.43  35 2.44  51 2.44  55 2.44  40 2.49  36 2.49  60 2.49  52 2.49
                             8 2.50  12 2.50  34 2.52  38 2.53
  57  0.613  0.976  0.095-  55 2.49  11 2.49  59 2.49  53 2.49  61 2.49   9 2.49  13 2.49  37 2.49
                            41 2.49
  58  0.611  0.972  0.383-  68 1.84  38 2.43  42 2.43  60 2.47  62 2.49  54 2.50  12 2.53  16 2.53
                            10 2.55  14 2.55
  59  0.696  0.892  0.191-  16 2.44  64 2.44  60 2.47  61 2.49  41 2.49  57 2.49  63 2.49  55 2.49
                            15 2.49  43 2.49  11 2.49  39 2.49
  60  0.529  0.809  0.286-  38 2.47  58 2.47  42 2.47  39 2.47  59 2.47  55 2.47  12 2.49  64 2.49
                            40 2.49  16 2.49  56 2.49  44 2.49
  61  0.863  0.976  0.095-  59 2.49  15 2.49  63 2.49  49 2.49  57 2.49  13 2.49   1 2.49  41 2.49
                            45 2.49
  62  0.863  0.976  0.377-  64 2.43   4 2.43  16 2.43  50 2.49  46 2.49  58 2.49  14 2.49  42 2.50
                             2 2.50
  63  0.946  0.892  0.191-   4 2.44  64 2.44  52 2.47  49 2.49  45 2.49  61 2.49  51 2.49  59 2.49
                             3 2.49  47 2.49  15 2.49  43 2.49
  64  0.779  0.809  0.285-  62 2.43  43 2.44  59 2.44  63 2.44  44 2.49  48 2.49  60 2.49  52 2.49
                            16 2.50   4 2.50  46 2.52  42 2.53
  65  0.196  0.142  0.435-   2 1.84   6 1.84  50 1.84
  66  0.696  0.642  0.435-  26 1.84  42 1.84  46 1.84
  67  0.196  0.642  0.435-  18 1.84  38 1.84  34 1.84
  68  0.696  0.142  0.435-  14 1.84  10 1.84  58 1.84
 

IMPORTANT INFORMATION: All symmetrisations will be switched off!
NOSYMM: (Re-)initialisation of all symmetry stuff for point group C_1.

 
 

Automatic generation of k-mesh.
 generate k-points for:    3    3    1
Space group operators:
 irot       det(A)        alpha          n_x          n_y          n_z        tau_x        tau_y        tau_z
    1     1.000000     0.000000     1.000000     0.000000     0.000000     0.000000     0.000000     0.000000
 
 Subroutine IBZKPT returns following result:
 ===========================================
 
 Found      5 irreducible k-points:
 
 Following reciprocal coordinates:
            Coordinates               Weight
  0.000000  0.000000  0.000000      1.000000
  0.333333  0.000000  0.000000      2.000000
  0.000000  0.333333  0.000000      2.000000
  0.333333  0.333333  0.000000      2.000000
 -0.333333  0.333333  0.000000      2.000000
 
 Following cartesian coordinates:
            Coordinates               Weight
  0.000000  0.000000  0.000000      1.000000
  0.033442  0.019308  0.000000      2.000000
  0.000000  0.038616  0.000000      2.000000
  0.033442  0.057924  0.000000      2.000000
 -0.033442  0.019308  0.000000      2.000000
 
 TETIRR: Found     24 inequivalent tetrahedra from       54


--------------------------------------------------------------------------------------------------------




 Dimension of arrays:
   k-points           NKPTS =      5   k-points in BZ     NKDIM =      5   number of bands    NBANDS=    432
   number of dos      NEDOS =    301   number of ions     NIONS =     68
   non local maximal  LDIM  =      6   non local SUM 2l+1 LMDIM =     18
   total plane-waves  NPLWV = ******
   max r-space proj   IRMAX =   7188   max aug-charges    IRDMAX=  18478
   dimension x,y,z NGX =    80 NGY =   80 NGZ =  160
   dimension x,y,z NGXF=   160 NGYF=  160 NGZF=  320
   support grid    NGXF=   160 NGYF=  160 NGZF=  320
   ions per type =              64   4
   NGX,Y,Z   is equivalent  to a cutoff of  13.34, 13.34, 12.60 a.u.
   NGXF,Y,Z  is equivalent  to a cutoff of  26.69, 26.69, 25.21 a.u.

 SYSTEM =  SQS-NiFe                                
 POSCAR =  POSCAR                                  

 Startparameter for this run:
   NWRITE =      2    write-flag & timer
   PREC   = accura    normal or accurate (medium, high low for compatibility)
   ISTART =      1    job   : 0-new  1-cont  2-samecut
   ICHARG =      1    charge: 1-file 2-atom 10-const
   ISPIN  =      2    spin polarized calculation?
   LNONCOLLINEAR =      F non collinear calculations
   LSORBIT =      F    spin-orbit coupling
   INIWAV =      1    electr: 0-lowe 1-rand  2-diag
   LASPH  =      F    aspherical Exc in radial PAW
   METAGGA=      F    non-selfconsistent MetaGGA calc.

 Electronic Relaxation 1
   ENCUT  =  520.0 eV  38.22 Ry    6.18 a.u.  18.53 18.53 39.24*2*pi/ulx,y,z
   ENINI  =  520.0     initial cutoff
   ENAUG  =  605.4 eV  augmentation charge cutoff
   NELM   =    200;   NELMIN=  2; NELMDL=  0     # of ELM steps 
   EDIFF  = 0.1E-05   stopping-criterion for ELM
   LREAL  =      T    real-space projection
   NLSPLINE    = F    spline interpolate recip. space projectors
   LCOMPAT=      F    compatible to vasp.4.4
   GGA_COMPAT  = T    GGA compatible to vasp.4.4-vasp.4.6
   LMAXPAW     = -100 max onsite density
   LMAXMIX     =    2 max onsite mixed and CHGCAR
   VOSKOWN=      0    Vosko Wilk Nusair interpolation
   ROPT   =   -0.00025  -0.00025
 Ionic relaxation
   EDIFFG = -.2E-01   stopping-criterion for IOM
   NSW    =      0    number of steps for IOM
   NBLOCK =      1;   KBLOCK =      1    inner block; outer block 
   IBRION =     -1    ionic relax: 0-MD 1-quasi-New 2-CG
   NFREE  =      0    steps in history (QN), initial steepest desc. (CG)
   ISIF   =      2    stress and relaxation
   IWAVPR =     10    prediction:  0-non 1-charg 2-wave 3-comb
   ISYM   =      0    0-nonsym 1-usesym 2-fastsym
   LCORR  =      T    Harris-Foulkes like correction to forces

   POTIM  = 0.5000    time-step for ionic-motion
   TEIN   =    0.0    initial temperature
   TEBEG  =    0.0;   TEEND  =   0.0 temperature during run
   SMASS  =  -3.00    Nose mass-parameter (am)
   estimated Nose-frequenzy (Omega)   =  0.10E-29 period in steps =****** mass=  -0.227E-26a.u.
   SCALEE = 1.0000    scale energy and forces
   NPACO  =    256;   APACO  = 16.0  distance and # of slots for P.C.
   PSTRESS=    0.0 pullay stress

  Mass of Ions in am
   POMASS =  58.69 16.00
  Ionic Valenz
   ZVAL   =  10.00  6.00
  Atomic Wigner-Seitz radii
   RWIGS  =  -1.00 -1.00
  virtual crystal weights 
   VCA    =   1.00  1.00
   NELECT =     664.0000    total number of electrons
   NUPDOWN=      -1.0000    fix difference up-down

 DOS related values:
   EMIN   =  10.00;   EMAX   =-10.00  energy-range for DOS
   EFERMI =   0.00
   ISMEAR =    -5;   SIGMA  =   0.20  broadening in eV -4-tet -1-fermi 0-gaus

 Electronic relaxation 2 (details)
   IALGO  =     68    algorithm
   LDIAG  =      T    sub-space diagonalisation (order eigenvalues)
   LSUBROT=      F    optimize rotation matrix (better conditioning)
   TURBO    =      0    0=normal 1=particle mesh
   IRESTART =      0    0=no restart 2=restart with 2 vectors
   NREBOOT  =      0    no. of reboots
   NMIN     =      0    reboot dimension
   EREF     =   0.00    reference energy to select bands
   IMIX   =      4    mixing-type and parameters
     AMIX     =   0.40;   BMIX     =  1.00
     AMIX_MAG =   1.60;   BMIX_MAG =  1.00
     AMIN     =   0.10
     WC   =   100.;   INIMIX=   1;  MIXPRE=   1;  MAXMIX= -45

 Intra band minimization:
   WEIMIN = 0.0000     energy-eigenvalue tresh-hold
   EBREAK =  0.58E-09  absolut break condition
   DEPER  =   0.30     relativ break condition  

   TIME   =   0.40     timestep for ELM

  volume/ion in A,a.u.               =      26.70       180.19
  Fermi-wavevector in a.u.,A,eV,Ry     =   1.170703  2.212308 18.647406  1.370546
  Thomas-Fermi vector in A             =   2.307158
 
 Write flags
   LWAVE        =      T    write WAVECAR
   LDOWNSAMPLE  =      F    k-point downsampling of WAVECAR
   LCHARG       =      T    write CHGCAR
   LVTOT        =      F    write LOCPOT, total local potential
   LVHAR        =      F    write LOCPOT, Hartree potential only
   LELF         =      F    write electronic localiz. function (ELF)
   LORBIT       =     11    0 simple, 1 ext, 2 COOP (PROOUT), +10 PAW based schemes


 Dipole corrections
   LMONO  =      F    monopole corrections only (constant potential shift)
   LDIPOL =      T    correct potential (dipole corrections)
   IDIPOL =      3    1-x, 2-y, 3-z, 4-all directions 
   EPSILON=  1.0000000 bulk dielectric constant

 Exchange correlation treatment:
   GGA     =    --    GGA type
   LEXCH   =     8    internal setting for exchange type
   VOSKOWN=      0    Vosko Wilk Nusair interpolation
   LHFCALC =     F    Hartree Fock is set to
   LHFONE  =     F    Hartree Fock one center treatment
   AEXX    =    0.0000 exact exchange contribution

 Linear response parameters
   LEPSILON=     F    determine dielectric tensor
   LRPA    =     F    only Hartree local field effects (RPA)
   LNABLA  =     F    use nabla operator in PAW spheres
   LVEL    =     F    velocity operator in full k-point grid
   LINTERFAST=   F  fast interpolation
   KINTER  =     0    interpolate to denser k-point grid
   CSHIFT  =0.1000    complex shift for real part using Kramers Kronig
   OMEGAMAX=  -1.0    maximum frequency
   DEG_THRESHOLD= 0.2000000E-02 threshold for treating states as degnerate
   RTIME   =   -0.100 relaxation time in fs
  (WPLASMAI=    0.000 imaginary part of plasma frequency in eV, 0.658/RTIME)
   DFIELD  = 0.0000000 0.0000000 0.0000000 field for delta impulse in time
 
 Orbital magnetization related:
   ORBITALMAG=     F  switch on orbital magnetization
   LCHIMAG   =     F  perturbation theory with respect to B field
   DQ        =  0.001000  dq finite difference perturbation B field
   LLRAUG    =     F  two centre corrections for induced B field



--------------------------------------------------------------------------------------------------------


 Static calculation
 charge density and potential will be updated during run
 spin polarized calculation
 RMM-DIIS sequential band-by-band and
  variant of blocked Davidson during initial phase
 perform sub-space diagonalisation
    before iterative eigenvector-optimisation
 modified Broyden-mixing scheme, WC =      100.0
 initial mixing is a Kerker type mixing with AMIX =  0.4000 and BMIX =      1.0000
 Hartree-type preconditioning will be used
 using additional bands          100
 real space projection scheme for non local part
 use partial core corrections
 calculate Harris-corrections to forces 
   (improved forces if not selfconsistent)
 use gradient corrections 
 use of overlap-Matrix (Vanderbilt PP)
 Fermi weights with tetrahedron method with Bloechl corrections


--------------------------------------------------------------------------------------------------------


  energy-cutoff  :      520.00
  volume of cell :     1815.73
      direct lattice vectors                 reciprocal lattice vectors
     9.967380000  0.000000000  0.000000000     0.100327268  0.057923975  0.000000000
    -4.983690000  8.632004290  0.000000000     0.000000000  0.115847950  0.000000000
     0.000000000  0.000000000 21.103750000     0.000000000  0.000000000  0.047384943

  length of vectors
     9.967380000  9.967380001 21.103750000     0.115847950  0.115847950  0.047384943


 
 old parameters found on file WAVECAR:
  energy-cutoff  :      520.00
  volume of cell :     1815.73
      direct lattice vectors                 reciprocal lattice vectors
     9.967380000  0.000000000  0.000000000     0.100327268  0.057923975  0.000000000
    -4.983690000  8.632004290  0.000000000     0.000000000  0.115847950  0.000000000
     0.000000000  0.000000000 21.103750000     0.000000000  0.000000000  0.047384943

  length of vectors

 
 k-points in units of 2pi/SCALE and weight: read from INCAR                         
   0.00000000  0.00000000  0.00000000       0.111
   0.03344242  0.01930799  0.00000000       0.222
   0.00000000  0.03861598  0.00000000       0.222
   0.03344242  0.05792397  0.00000000       0.222
  -0.03344242  0.01930799  0.00000000       0.222
 
 k-points in reciprocal lattice and weights: read from INCAR                         
   0.00000000  0.00000000  0.00000000       0.111
   0.33333333  0.00000000  0.00000000       0.222
   0.00000000  0.33333333  0.00000000       0.222
   0.33333333  0.33333333  0.00000000       0.222
  -0.33333333  0.33333333  0.00000000       0.222
 
 position of ions in fractional coordinates (direct lattice) 
   0.11283300  0.22566700  0.09477000
   0.11092482  0.22757355  0.38250136
   0.19616700  0.14233300  0.19117800
   0.02980593  0.05914509  0.28471391
   0.36283300  0.22566700  0.09477000
   0.36661655  0.22745473  0.38252654
   0.44616700  0.14233300  0.19117800
   0.27929155  0.05910384  0.28471731
   0.61283300  0.22566700  0.09477000
   0.61085361  0.22745237  0.38253542
   0.69616700  0.14233300  0.19117800
   0.52982641  0.05910194  0.28473294
   0.86283300  0.22566700  0.09477000
   0.86671765  0.22755920  0.38251066
   0.94616700  0.14233300  0.19117800
   0.77932387  0.05913939  0.28472720
   0.11283300  0.47566700  0.09477000
   0.11094396  0.47183049  0.38251567
   0.19616700  0.39233300  0.19117800
   0.02953141  0.30901187  0.28645662
   0.36283300  0.47566700  0.09477000
   0.36277200  0.47554750  0.37714213
   0.44616700  0.39233300  0.19117800
   0.27933184  0.30861538  0.28471016
   0.61283300  0.47566700  0.09477000
   0.61084262  0.47170806  0.38256243
   0.69616700  0.39233300  0.19117800
   0.52945895  0.30891242  0.28647107
   0.86283300  0.47566700  0.09477000
   0.86279672  0.47556828  0.37714388
   0.94616700  0.39233300  0.19117800
   0.77930660  0.30860657  0.28472030
   0.11283300  0.72566700  0.09477000
   0.11087517  0.72755880  0.38250166
   0.19616700  0.64233300  0.19117800
   0.02980650  0.55913896  0.28471717
   0.36283300  0.72566700  0.09477000
   0.36665804  0.72754397  0.38253097
   0.44616700  0.64233300  0.19117800
   0.27934363  0.55915500  0.28472150
   0.61283300  0.72566700  0.09477000
   0.61083800  0.72745936  0.38254628
   0.69616700  0.64233300  0.19117800
   0.52982286  0.55910391  0.28473328
   0.86283300  0.72566700  0.09477000
   0.86660831  0.72749218  0.38251312
   0.94616700  0.64233300  0.19117800
   0.77927720  0.55909274  0.28472939
   0.11283300  0.97566700  0.09477000
   0.11086335  0.97178854  0.38251636
   0.19616700  0.89233300  0.19117800
   0.02946358  0.80897569  0.28646295
   0.36283300  0.97566700  0.09477000
   0.36275968  0.97554825  0.37713827
   0.44616700  0.89233300  0.19117800
   0.27930506  0.80861333  0.28471008
   0.61283300  0.97566700  0.09477000
   0.61091785  0.97176753  0.38255727
   0.69616700  0.89233300  0.19117800
   0.52948713  0.80896195  0.28647409
   0.86283300  0.97566700  0.09477000
   0.86280603  0.97557442  0.37714103
   0.94616700  0.89233300  0.19117800
   0.77928077  0.80860209  0.28472222
   0.19611409  0.14231243  0.43475347
   0.69614094  0.64224730  0.43470615
   0.19612898  0.64232866  0.43473714
   0.69626324  0.14234524  0.43471009
 
 position of ions in cartesian coordinates  (Angst):
  -0.00000498  1.94795851  2.00000239
  -0.02852616  1.96441588  8.07221297
   1.24592748  1.22861907  4.03457272
   0.00232626  0.51054066  6.00853123
   2.49184002  1.94795851  2.00000239
   2.52064257  1.96339019  8.07274446
   3.73777248  1.22861907  4.03457272
   2.48924981  0.51018459  6.00860297
   4.98368502  1.94795851  2.00000239
   4.95505797  1.96336980  8.07293192
   6.22961748  1.22861907  4.03457272
   4.98643538  0.51016818  6.00893269
   7.47553002  1.94795851  2.00000239
   7.50481970  1.96429195  8.07240926
   8.72146248  1.22861907  4.03457272
   7.47308476  0.51049144  6.00881168
  -1.24592748  4.10595958  2.00000239
  -1.24563628  4.07284284  8.07251501
   0.00000498  3.38662014  4.03457272
  -1.24566856  2.66739176  6.04530897
   1.24591752  4.10595958  2.00000239
   1.24590507  4.10492805  7.95911321
   2.49184998  3.38662014  4.03457272
   1.24616319  2.66396929  6.00845213
   3.73776252  4.10595958  2.00000239
   3.73765380  4.07178597  8.07350193
   4.98369498  3.38662014  4.03457272
   3.73779476  2.66653334  6.04561379
   6.22960752  4.10595958  2.00000239
   6.22973793  4.10510741  7.95915021
   7.47553998  3.38662014  4.03457272
   6.22964558  2.66389322  6.00866609
  -2.49184998  6.26396066  2.00000239
  -2.52079253  6.28029071  8.07221934
  -1.24591752  5.54462121  4.03457272
  -2.48948250  4.82648990  6.00859997
  -0.00000498  6.26396066  2.00000239
   0.02876640  6.28016265  8.07283788
   1.24592748  5.54462121  4.03457272
  -0.00233105  4.82662837  6.00869126
   2.49184002  6.26396066  2.00000239
   2.46302248  6.27943234  8.07316110
   3.73777248  5.54462121  4.03457272
   2.49454519  4.82618734  6.00893992
   4.98368502  6.26396066  2.00000239
   5.01221886  6.27971561  8.07246126
   6.22961748  5.54462121  4.03457272
   4.98100704  4.82609096  6.00885786
  -3.73777248  8.42196173  2.00000239
  -3.73807572  8.38848281  8.07252971
  -2.49184002  7.70262228  4.03457272
  -3.73800934  6.98308165  6.04544253
  -1.24592748  8.42196173  2.00000239
  -1.24606650  8.42093668  7.95903175
   0.00000498  7.70262228  4.03457272
  -1.24593854  6.97995375  6.00845028
   1.24591752  8.42196173  2.00000239
   1.24626228  8.38830149  8.07339301
   2.49184998  7.70262228  4.03457272
   1.24598382  6.98296301  6.04567754
   3.73776252  8.42196173  2.00000239
   3.73795514  8.42116254  7.95909006
   4.98369498  7.70262228  4.03457272
   3.73756539  6.97985669  6.00870661
   1.24550268  1.22844148  9.17492859
   3.73793987  5.54388145  9.17392986
  -1.24627484  5.54458373  9.17458402
   6.23051576  1.22872468  9.17401304
 


--------------------------------------------------------------------------------------------------------


 k-point  1 :   0.0000 0.0000 0.0000  plane waves:   48949
 k-point  2 :   0.3333 0.0000 0.0000  plane waves:   48884
 k-point  3 :   0.0000 0.3333 0.0000  plane waves:   48884
 k-point  4 :   0.3333 0.3333 0.0000  plane waves:   48804
 k-point  5 :  -0.3333 0.3333 0.0000  plane waves:   48884

 maximum and minimum number of plane-waves per node :      2058     2018

 maximum number of plane-waves:     48949
 maximum index in each direction: 
   IXMAX=   18   IYMAX=   18   IZMAX=   39
   IXMIN=  -18   IYMIN=  -18   IZMIN=  -39


 real space projection operators:
  total allocation   :      63052.69 KBytes
  max/ min on nodes  :       3200.42       2316.36


 parallel 3D FFT for wavefunctions:
    minimum data exchange during FFTs selected (reduces bandwidth)
 parallel 3D FFT for charge:
    minimum data exchange during FFTs selected (reduces bandwidth)


 total amount of memory used by VASP MPI-rank0   113814. kBytes
=======================================================================

   base      :      30000. kBytes
   nonlr-proj:      12204. kBytes
   fftplans  :       6402. kBytes
   grid      :      16455. kBytes
   one-center:         93. kBytes
   wavefun   :      48660. kBytes
 
     INWAV:  cpu time   11.7203: real time   12.0297
 Broyden mixing: mesh for mixing (old mesh)
   NGX = 37   NGY = 37   NGZ = 79
  (NGX  =160   NGY  =160   NGZ  =320)
  gives a total of 108151 points

 initial charge density was supplied:
 number of electron     664.0000031 magnetization      42.7277441
 keeping initial charge density in first step


--------------------------------------------------------------------------------------------------------


 Maximum index for non-local projection operator          709
 Maximum index for augmentation-charges         1178 (set IRDMAX)


--------------------------------------------------------------------------------------------------------


 First call to EWALD:  gamma=   0.145
 Maximum number of real-space cells 4x 4x 2
 Maximum number of reciprocal cells 2x 2x 4

    FEWALD:  cpu time    0.0033: real time    0.0033


--------------------------------------- Iteration      1(   1)  ---------------------------------------


    POTLOK:  cpu time    0.4106: real time    0.4220
    SETDIJ:  cpu time    0.0234: real time    0.0234
     EDDAV:  cpu time   42.7774: real time   42.8296
 BZINTS: Fermi energy:  0.472008;664.000000 electrons
         Band energy:***********;  BLOECHL correction: -0.050705
       DOS:  cpu time    0.0606: real time    0.0606
    CHARGE:  cpu time    1.1103: real time    1.1106
    MIXING:  cpu time    0.0062: real time    0.0062
    --------------------------------------------
      LOOP:  cpu time   44.3886: real time   44.4526

 eigenvalue-minimisations  :  9243
 total energy-change (2. order) :-0.3584627E+03  (-0.6245874E-02)
 number of electron     664.0000031 magnetization      42.7357219
 augmentation part      397.3604565 magnetization      40.0897085

 DIPCOR: dipole corrections for dipol
 direction  3 min pos   238,
 dipolmoment           0.000000      0.000000      0.344563 electrons x Angstroem
 Tr[quadrupol]    -10848.475150

 energy correction for charged system         0.000000 eV
 dipol+quadrupol energy correction           -0.005916 eV
 added-field ion interaction         -2.191605 eV  (added to PSCEN)


 Broyden mixing:
  rms(total) = 0.14488E+00    rms(broyden)= 0.14480E+00
  rms(prec ) = 0.16576E+00
  weight for this iteration     100.00

 Free energy of the ion-electron system (eV)
  ---------------------------------------------------
  alpha Z        PSCENC =      1225.28441573
  Ewald energy   TEWEN  =    247891.88410989
  -Hartree energ DENC   =   -316535.37628134
  -exchange      EXHF   =         0.00000000
  -V(xc)+E(xc)   XCENC  =      2070.03985626
  PAW double counting   =     74321.88616422   -78716.37413883
  entropy T*S    EENTRO =         0.00000000
  eigenvalues    EBANDS =     -1316.17757438
  atomic energy  EATOM  =     70700.37078785
  Solvation  Ediel_sol  =         0.00000000
  ---------------------------------------------------
  free energy    TOTEN  =      -358.46266059 eV

  energy without entropy =     -358.46266059  energy(sigma->0) =     -358.46266059


--------------------------------------------------------------------------------------------------------




--------------------------------------- Iteration      1(   2)  ---------------------------------------


    POTLOK:  cpu time    0.4139: real time    0.4233
    SETDIJ:  cpu time    0.0231: real time    0.0231
    EDDIAG:  cpu time    6.0175: real time    6.0201
  RMM-DIIS:  cpu time   21.7870: real time   21.8035
    ORTHCH:  cpu time    1.7228: real time    1.7231
 BZINTS: Fermi energy:  0.484535;664.000000 electrons
         Band energy:***********;  BLOECHL correction: -0.031713
       DOS:  cpu time    0.0579: real time    0.0579
    CHARGE:  cpu time    1.1167: real time    1.1170
    MIXING:  cpu time    0.0065: real time    0.0064
    --------------------------------------------
      LOOP:  cpu time   31.1453: real time   31.1744

 eigenvalue-minimisations  :  9147
 total energy-change (2. order) :-0.1626699E+01  (-0.3007986E-01)
 number of electron     664.0000022 magnetization      42.7374085
 augmentation part      397.6240678 magnetization      39.8234304

 DIPCOR: dipole corrections for dipol
 direction  3 min pos   237,
 dipolmoment           0.000000      0.000000      0.169556 electrons x Angstroem
 Tr[quadrupol]    -10848.273845

 energy correction for charged system         0.000000 eV
 dipol+quadrupol energy correction           -0.001433 eV
 added-field ion interaction         -1.818446 eV  (added to PSCEN)


 Broyden mixing:
  rms(total) = 0.27253E+01    rms(broyden)= 0.27252E+01
  rms(prec ) = 0.35117E+01
  weight for this iteration     100.00

 eigenvalues of (default mixing * dielectric matrix)
  average eigenvalue GAMMA=   0.0318
  0.0318

 Free energy of the ion-electron system (eV)
  ---------------------------------------------------
  alpha Z        PSCENC =      1225.66205816
  Ewald energy   TEWEN  =    247891.88410989
  -Hartree energ DENC   =   -316525.19763854
  -exchange      EXHF   =         0.00000000
  -V(xc)+E(xc)   XCENC  =      2069.97560997
  PAW double counting   =     74319.55222830   -78713.85202676
  entropy T*S    EENTRO =         0.00000000
  eigenvalues    EBANDS =     -1328.48448831
  atomic energy  EATOM  =     70700.37078785
  Solvation  Ediel_sol  =         0.00000000
  ---------------------------------------------------
  free energy    TOTEN  =      -360.08935945 eV

  energy without entropy =     -360.08935945  energy(sigma->0) =     -360.08935945


--------------------------------------------------------------------------------------------------------




--------------------------------------- Iteration      1(   3)  ---------------------------------------


    POTLOK:  cpu time    0.4136: real time    0.4242
    SETDIJ:  cpu time    0.0232: real time    0.0232
    EDDIAG:  cpu time    6.0252: real time    6.0281
  RMM-DIIS:  cpu time   21.8914: real time   21.9064
    ORTHCH:  cpu time    1.7316: real time    1.7320
 BZINTS: Fermi energy:  0.467378;664.000000 electrons
         Band energy:***********;  BLOECHL correction: -0.049173
       DOS:  cpu time    0.0589: real time    0.0589
    CHARGE:  cpu time    1.1140: real time    1.1142
    MIXING:  cpu time    0.0064: real time    0.0064
    --------------------------------------------
      LOOP:  cpu time   31.2644: real time   31.2933

 eigenvalue-minimisations  :  9130
 total energy-change (2. order) : 0.1831801E+01  (-0.1552451E-01)
 number of electron     664.0000030 magnetization      42.7452156
 augmentation part      397.4985488 magnetization      40.0635509

 DIPCOR: dipole corrections for dipol
 direction  3 min pos   238,
 dipolmoment           0.000000      0.000000      0.353493 electrons x Angstroem
 Tr[quadrupol]    -10848.422446

 energy correction for charged system         0.000000 eV
 dipol+quadrupol energy correction           -0.006227 eV
 added-field ion interaction         -2.248409 eV  (added to PSCEN)


 Broyden mixing:
  rms(total) = 0.25018E+00    rms(broyden)= 0.24988E+00
  rms(prec ) = 0.27813E+00
  weight for this iteration     100.00

 eigenvalues of (default mixing * dielectric matrix)
  average eigenvalue GAMMA=   0.1569
  0.2792  0.0345

 Free energy of the ion-electron system (eV)
  ---------------------------------------------------
  alpha Z        PSCENC =      1225.22730058
  Ewald energy   TEWEN  =    247891.88410989
  -Hartree energ DENC   =   -316531.55100345
  -exchange      EXHF   =         0.00000000
  -V(xc)+E(xc)   XCENC  =      2069.98622667
  PAW double counting   =     74321.01243861   -78715.32752052
  entropy T*S    EENTRO =         0.00000000
  eigenvalues    EBANDS =     -1319.85989758
  atomic energy  EATOM  =     70700.37078785
  Solvation  Ediel_sol  =         0.00000000
  ---------------------------------------------------
  free energy    TOTEN  =      -358.25755795 eV

  energy without entropy =     -358.25755795  energy(sigma->0) =     -358.25755795


--------------------------------------------------------------------------------------------------------




--------------------------------------- Iteration      1(   4)  ---------------------------------------


    POTLOK:  cpu time    0.4146: real time    0.4271
    SETDIJ:  cpu time    0.0231: real time    0.0231
    EDDIAG:  cpu time    6.0289: real time    6.0313
  RMM-DIIS:  cpu time   21.3763: real time   21.3941
    ORTHCH:  cpu time    1.7294: real time    1.7298
 BZINTS: Fermi energy:  0.480455;664.000000 electrons
         Band energy:***********;  BLOECHL correction: -0.046884
       DOS:  cpu time    0.0588: real time    0.0588
    CHARGE:  cpu time    1.1149: real time    1.1151
    MIXING:  cpu time    0.0065: real time    0.0065
    --------------------------------------------
      LOOP:  cpu time   30.7525: real time   30.7860

 eigenvalue-minimisations  :  8962
 total energy-change (2. order) :-0.3063152E-01  (-0.6802252E-02)
 number of electron     664.0000032 magnetization      42.7607806
 augmentation part      397.4688478 magnetization      40.1359842

 DIPCOR: dipole corrections for dipol
 direction  3 min pos   235,
 dipolmoment           0.000000      0.000000      0.332875 electrons x Angstroem
 Tr[quadrupol]    -10848.397708

 energy correction for charged system         0.000000 eV
 dipol+quadrupol energy correction           -0.005522 eV
 added-field ion interaction         -6.475497 eV  (added to PSCEN)


 Broyden mixing:
  rms(total) = 0.38214E+00    rms(broyden)= 0.38211E+00
  rms(prec ) = 0.44698E+00
  weight for this iteration     100.00

 eigenvalues of (default mixing * dielectric matrix)
  average eigenvalue GAMMA=   0.2403
  0.5987  0.0885  0.0337

 Free energy of the ion-electron system (eV)
  ---------------------------------------------------
  alpha Z        PSCENC =      1221.00091841
  Ewald energy   TEWEN  =    247891.88410989
  -Hartree energ DENC   =   -316536.28548044
  -exchange      EXHF   =         0.00000000
  -V(xc)+E(xc)   XCENC  =      2069.99521265
  PAW double counting   =     74322.00569260   -78716.60842851
  entropy T*S    EENTRO =         0.00000000
  eigenvalues    EBANDS =     -1310.65100191
  atomic energy  EATOM  =     70700.37078785
  Solvation  Ediel_sol  =         0.00000000
  ---------------------------------------------------
  free energy    TOTEN  =      -358.28818946 eV

  energy without entropy =     -358.28818946  energy(sigma->0) =     -358.28818946


--------------------------------------------------------------------------------------------------------




--------------------------------------- Iteration      1(   5)  ---------------------------------------


    POTLOK:  cpu time    0.4135: real time    0.4242
    SETDIJ:  cpu time    0.0231: real time    0.0232
    EDDIAG:  cpu time    6.0193: real time    6.0221
  RMM-DIIS:  cpu time   21.8599: real time   21.8769
    ORTHCH:  cpu time    1.7308: real time    1.7312
 BZINTS: Fermi energy:  0.473527;664.000000 electrons
         Band energy:***********;  BLOECHL correction: -0.049987
       DOS:  cpu time    0.0587: real time    0.0587
    CHARGE:  cpu time    1.1134: real time    1.1136
    MIXING:  cpu time    0.0070: real time    0.0070
    --------------------------------------------
      LOOP:  cpu time   31.2256: real time   31.2568

 eigenvalue-minimisations  :  9118
 total energy-change (2. order) : 0.2375038E-01  (-0.2533032E-02)
 number of electron     664.0000031 magnetization      42.7682310
 augmentation part      397.4165510 magnetization      40.1512043

 DIPCOR: dipole corrections for dipol
 direction  3 min pos   238,
 dipolmoment           0.000000      0.000000      0.343919 electrons x Angstroem
 Tr[quadrupol]    -10848.480206

 energy correction for charged system         0.000000 eV
 dipol+quadrupol energy correction           -0.005894 eV
 added-field ion interaction         -2.187512 eV  (added to PSCEN)


 Broyden mixing:
  rms(total) = 0.22446E+00    rms(broyden)= 0.22442E+00
  rms(prec ) = 0.24595E+00
  weight for this iteration     100.00

 eigenvalues of (default mixing * dielectric matrix)
  average eigenvalue GAMMA=   0.2283
  0.6615  0.0337  0.1090  0.1090

 Free energy of the ion-electron system (eV)
  ---------------------------------------------------
  alpha Z        PSCENC =      1225.28853062
  Ewald energy   TEWEN  =    247891.88410989
  -Hartree energ DENC   =   -316534.91004801
  -exchange      EXHF   =         0.00000000
  -V(xc)+E(xc)   XCENC  =      2070.06946476
  PAW double counting   =     74322.41814728   -78717.38665267
  entropy T*S    EENTRO =         0.00000000
  eigenvalues    EBANDS =     -1315.99877881
  atomic energy  EATOM  =     70700.37078785
  Solvation  Ediel_sol  =         0.00000000
  ---------------------------------------------------
  free energy    TOTEN  =      -358.26443909 eV

  energy without entropy =     -358.26443909  energy(sigma->0) =     -358.26443909


--------------------------------------------------------------------------------------------------------




--------------------------------------- Iteration      1(   6)  ---------------------------------------


    POTLOK:  cpu time    0.4129: real time    0.4260
    SETDIJ:  cpu time    0.0231: real time    0.0231
    EDDIAG:  cpu time    6.0302: real time    6.0322
  RMM-DIIS:  cpu time   21.6719: real time   21.6887
    ORTHCH:  cpu time    1.7293: real time    1.7297
 BZINTS: Fermi energy:  0.481737;664.000000 electrons
         Band energy:***********;  BLOECHL correction: -0.050517
       DOS:  cpu time    0.0582: real time    0.0582
    CHARGE:  cpu time    1.1164: real time    1.1174
    MIXING:  cpu time    0.0069: real time    0.0069
    --------------------------------------------
      LOOP:  cpu time   31.0488: real time   31.0823

 eigenvalue-minimisations  :  9055
 total energy-change (2. order) : 0.1053777E-01  (-0.1411326E-02)
 number of electron     664.0000031 magnetization      42.7748887
 augmentation part      397.4091112 magnetization      40.1568609

 DIPCOR: dipole corrections for dipol
 direction  3 min pos   235,
 dipolmoment           0.000000      0.000000      0.340740 electrons x Angstroem
 Tr[quadrupol]    -10848.352215

 energy correction for charged system         0.000000 eV
 dipol+quadrupol energy correction           -0.005786 eV
 added-field ion interaction         -6.628497 eV  (added to PSCEN)


 Broyden mixing:
  rms(total) = 0.14654E+00    rms(broyden)= 0.14649E+00
  rms(prec ) = 0.16296E+00
  weight for this iteration     100.00

 eigenvalues of (default mixing * dielectric matrix)
  average eigenvalue GAMMA=   0.2219
  0.5762  0.3143  0.0337  0.1140  0.0710

 Free energy of the ion-electron system (eV)
  ---------------------------------------------------
  alpha Z        PSCENC =      1220.84765436
  Ewald energy   TEWEN  =    247891.88410989
  -Hartree energ DENC   =   -316535.56836200
  -exchange      EXHF   =         0.00000000
  -V(xc)+E(xc)   XCENC  =      2070.07977594
  PAW double counting   =     74322.27556992   -78717.30983587
  entropy T*S    EENTRO =         0.00000000
  eigenvalues    EBANDS =     -1310.83360143
  atomic energy  EATOM  =     70700.37078785
  Solvation  Ediel_sol  =         0.00000000
  ---------------------------------------------------
  free energy    TOTEN  =      -358.25390132 eV

  energy without entropy =     -358.25390132  energy(sigma->0) =     -358.25390132


--------------------------------------------------------------------------------------------------------




--------------------------------------- Iteration      1(   7)  ---------------------------------------


    POTLOK:  cpu time    0.4155: real time    0.4256
    SETDIJ:  cpu time    0.0232: real time    0.0232
    EDDIAG:  cpu time    5.9786: real time    5.9805
  RMM-DIIS:  cpu time   21.5967: real time   21.6148
    ORTHCH:  cpu time    1.7331: real time    1.7344
 BZINTS: Fermi energy:  0.482272;664.000000 electrons
         Band energy:***********;  BLOECHL correction: -0.050578
       DOS:  cpu time    0.0593: real time    0.0593
    CHARGE:  cpu time    1.1146: real time    1.1148
    MIXING:  cpu time    0.0070: real time    0.0070
    --------------------------------------------
      LOOP:  cpu time   30.9280: real time   30.9596

 eigenvalue-minimisations  :  9034
 total energy-change (2. order) : 0.3904573E-03  (-0.6521855E-03)
 number of electron     664.0000031 magnetization      42.7937954
 augmentation part      397.4185816 magnetization      40.1747821

 DIPCOR: dipole corrections for dipol
 direction  3 min pos   235,
 dipolmoment           0.000000      0.000000      0.338978 electrons x Angstroem
 Tr[quadrupol]    -10848.374430

 energy correction for charged system         0.000000 eV
 dipol+quadrupol energy correction           -0.005726 eV
 added-field ion interaction         -6.594219 eV  (added to PSCEN)


 Broyden mixing:
  rms(total) = 0.13689E+00    rms(broyden)= 0.13685E+00
  rms(prec ) = 0.15516E+00
  weight for this iteration     100.00

 eigenvalues of (default mixing * dielectric matrix)
  average eigenvalue GAMMA=   0.2967
  0.7322  0.7322  0.0337  0.1311  0.0859  0.0648

 Free energy of the ion-electron system (eV)
  ---------------------------------------------------
  alpha Z        PSCENC =      1220.88199224
  Ewald energy   TEWEN  =    247891.88410989
  -Hartree energ DENC   =   -316536.06053757
  -exchange      EXHF   =         0.00000000
  -V(xc)+E(xc)   XCENC  =      2070.07330490
  PAW double counting   =     74321.93662383   -78716.90649081
  entropy T*S    EENTRO =         0.00000000
  eigenvalues    EBANDS =     -1310.43330119
  atomic energy  EATOM  =     70700.37078785
  Solvation  Ediel_sol  =         0.00000000
  ---------------------------------------------------
  free energy    TOTEN  =      -358.25351087 eV

  energy without entropy =     -358.25351087  energy(sigma->0) =     -358.25351087


--------------------------------------------------------------------------------------------------------




--------------------------------------- Iteration      1(   8)  ---------------------------------------


    POTLOK:  cpu time    0.4151: real time    0.4278
    SETDIJ:  cpu time    0.0232: real time    0.0231
    EDDIAG:  cpu time    5.9743: real time    5.9765
  RMM-DIIS:  cpu time   21.5317: real time   21.5513
    ORTHCH:  cpu time    1.7363: real time    1.7376
 BZINTS: Fermi energy:  0.479801;664.000000 electrons
         Band energy:***********;  BLOECHL correction: -0.051104
       DOS:  cpu time    0.0594: real time    0.0594
    CHARGE:  cpu time    1.1151: real time    1.1153
    MIXING:  cpu time    0.0071: real time    0.0071
    --------------------------------------------
      LOOP:  cpu time   30.8622: real time   30.8982

 eigenvalue-minimisations  :  9037
 total energy-change (2. order) : 0.1312628E-02  (-0.4308112E-03)
 number of electron     664.0000031 magnetization      42.8033562
 augmentation part      397.4462406 magnetization      40.1932299

 DIPCOR: dipole corrections for dipol
 direction  3 min pos   235,
 dipolmoment           0.000000      0.000000      0.344816 electrons x Angstroem
 Tr[quadrupol]    -10848.349746

 energy correction for charged system         0.000000 eV
 dipol+quadrupol energy correction           -0.005925 eV
 added-field ion interaction         -6.707801 eV  (added to PSCEN)


 Broyden mixing:
  rms(total) = 0.15356E+00    rms(broyden)= 0.15352E+00
  rms(prec ) = 0.17014E+00
  weight for this iteration     100.00

 eigenvalues of (default mixing * dielectric matrix)
  average eigenvalue GAMMA=   0.2941
  0.8244  0.8244  0.1437  0.0337  0.0859  0.0859  0.0608

 Free energy of the ion-electron system (eV)
  ---------------------------------------------------
  alpha Z        PSCENC =      1220.76821081
  Ewald energy   TEWEN  =    247891.88410989
  -Hartree energ DENC   =   -316534.71033618
  -exchange      EXHF   =         0.00000000
  -V(xc)+E(xc)   XCENC  =      2070.07466624
  PAW double counting   =     74321.14597923   -78715.94654150
  entropy T*S    EENTRO =         0.00000000
  eigenvalues    EBANDS =     -1311.83907458
  atomic energy  EATOM  =     70700.37078785
  Solvation  Ediel_sol  =         0.00000000
  ---------------------------------------------------
  free energy    TOTEN  =      -358.25219824 eV

  energy without entropy =     -358.25219824  energy(sigma->0) =     -358.25219824


--------------------------------------------------------------------------------------------------------




--------------------------------------- Iteration      1(   9)  ---------------------------------------


    POTLOK:  cpu time    0.4151: real time    0.4270
    SETDIJ:  cpu time    0.0231: real time    0.0231
    EDDIAG:  cpu time    5.9839: real time    5.9857
  RMM-DIIS:  cpu time   21.2979: real time   21.3142
    ORTHCH:  cpu time    1.7316: real time    1.7319
 BZINTS: Fermi energy:  0.471798;664.000000 electrons
         Band energy:***********;  BLOECHL correction: -0.051711
       DOS:  cpu time    0.0594: real time    0.0594
    CHARGE:  cpu time    1.1125: real time    1.1127
    MIXING:  cpu time    0.0073: real time    0.0073
    --------------------------------------------
      LOOP:  cpu time   30.6307: real time   30.6613

 eigenvalue-minimisations  :  8932
 total energy-change (2. order) : 0.5217756E-02  (-0.3051428E-03)
 number of electron     664.0000031 magnetization      42.8161024
 augmentation part      397.4522871 magnetization      40.2128345

 DIPCOR: dipole corrections for dipol
 direction  3 min pos   238,
 dipolmoment           0.000000      0.000000      0.347326 electrons x Angstroem
 Tr[quadrupol]    -10848.476645

 energy correction for charged system         0.000000 eV
 dipol+quadrupol energy correction           -0.006011 eV
 added-field ion interaction         -2.209178 eV  (added to PSCEN)


 Broyden mixing:
  rms(total) = 0.63133E-01    rms(broyden)= 0.63072E-01
  rms(prec ) = 0.71458E-01
  weight for this iteration     100.00

 eigenvalues of (default mixing * dielectric matrix)
  average eigenvalue GAMMA=   0.3118
  0.8840  0.8840  0.3385  0.1323  0.0337  0.0936  0.0702  0.0580

 Free energy of the ion-electron system (eV)
  ---------------------------------------------------
  alpha Z        PSCENC =      1225.26674723
  Ewald energy   TEWEN  =    247891.88410989
  -Hartree energ DENC   =   -316534.04936979
  -exchange      EXHF   =         0.00000000
  -V(xc)+E(xc)   XCENC  =      2070.08054157
  PAW double counting   =     74320.98827737   -78715.76388389
  entropy T*S    EENTRO =         0.00000000
  eigenvalues    EBANDS =     -1317.02419071
  atomic energy  EATOM  =     70700.37078785
  Solvation  Ediel_sol  =         0.00000000
  ---------------------------------------------------
  free energy    TOTEN  =      -358.24698048 eV

  energy without entropy =     -358.24698048  energy(sigma->0) =     -358.24698048


--------------------------------------------------------------------------------------------------------




--------------------------------------- Iteration      1(  10)  ---------------------------------------


    POTLOK:  cpu time    0.4147: real time    0.4252
    SETDIJ:  cpu time    0.0231: real time    0.0231
    EDDIAG:  cpu time    5.9867: real time    5.9884
  RMM-DIIS:  cpu time   21.2095: real time   21.2253
    ORTHCH:  cpu time    1.7323: real time    1.7326
 BZINTS: Fermi energy:  0.475046;664.000000 electrons
         Band energy:***********;  BLOECHL correction: -0.051830
       DOS:  cpu time    0.0580: real time    0.0581
    CHARGE:  cpu time    1.1133: real time    1.1139
    MIXING:  cpu time    0.0076: real time    0.0076
    --------------------------------------------
      LOOP:  cpu time   30.5452: real time   30.5741

 eigenvalue-minimisations  :  8877
 total energy-change (2. order) :-0.5565213E-03  (-0.2098459E-03)
 number of electron     664.0000031 magnetization      42.8305841
 augmentation part      397.4404190 magnetization      40.2321041

 DIPCOR: dipole corrections for dipol
 direction  3 min pos   237,
 dipolmoment           0.000000      0.000000      0.344700 electrons x Angstroem
 Tr[quadrupol]    -10848.440229

 energy correction for charged system         0.000000 eV
 dipol+quadrupol energy correction           -0.005921 eV
 added-field ion interaction         -3.696829 eV  (added to PSCEN)


 Broyden mixing:
  rms(total) = 0.90236E-01    rms(broyden)= 0.90214E-01
  rms(prec ) = 0.98128E-01
  weight for this iteration     100.00

 eigenvalues of (default mixing * dielectric matrix)
  average eigenvalue GAMMA=   0.3244
  0.9534  0.9534  0.5367  0.1364  0.0337  0.0970  0.0833  0.0665  0.0587

 Free energy of the ion-electron system (eV)
  ---------------------------------------------------
  alpha Z        PSCENC =      1223.77918657
  Ewald energy   TEWEN  =    247891.88410989
  -Hartree energ DENC   =   -316534.57414433
  -exchange      EXHF   =         0.00000000
  -V(xc)+E(xc)   XCENC  =      2070.08884804
  PAW double counting   =     74321.31727144   -78716.19464297
  entropy T*S    EENTRO =         0.00000000
  eigenvalues    EBANDS =     -1314.91895350
  atomic energy  EATOM  =     70700.37078785
  Solvation  Ediel_sol  =         0.00000000
  ---------------------------------------------------
  free energy    TOTEN  =      -358.24753700 eV

  energy without entropy =     -358.24753700  energy(sigma->0) =     -358.24753700


--------------------------------------------------------------------------------------------------------




--------------------------------------- Iteration      1(  11)  ---------------------------------------


    POTLOK:  cpu time    0.4152: real time    0.4267
    SETDIJ:  cpu time    0.0232: real time    0.0232
    EDDIAG:  cpu time    5.9849: real time    5.9877
  RMM-DIIS:  cpu time   21.1485: real time   21.1676
    ORTHCH:  cpu time    1.7311: real time    1.7316
 BZINTS: Fermi energy:  0.478738;664.000000 electrons
         Band energy:***********;  BLOECHL correction: -0.051800
       DOS:  cpu time    0.0578: real time    0.0578
    CHARGE:  cpu time    1.1120: real time    1.1123
    MIXING:  cpu time    0.0077: real time    0.0077
    --------------------------------------------
      LOOP:  cpu time   30.4804: real time   30.5146

 eigenvalue-minimisations  :  8876
 total energy-change (2. order) : 0.1499791E-02  (-0.1324338E-03)
 number of electron     664.0000031 magnetization      42.8393712
 augmentation part      397.4243345 magnetization      40.2299023

 DIPCOR: dipole corrections for dipol
 direction  3 min pos   236,
 dipolmoment           0.000000      0.000000      0.341889 electrons x Angstroem
 Tr[quadrupol]    -10848.397990

 energy correction for charged system         0.000000 eV
 dipol+quadrupol energy correction           -0.005825 eV
 added-field ion interaction         -5.158774 eV  (added to PSCEN)


 Broyden mixing:
  rms(total) = 0.59772E-01    rms(broyden)= 0.59735E-01
  rms(prec ) = 0.66610E-01
  weight for this iteration     100.00

 eigenvalues of (default mixing * dielectric matrix)
  average eigenvalue GAMMA=   0.3179
  0.9927  0.9927  0.5831  0.1513  0.1311  0.0337  0.0927  0.0798  0.0646  0.0577

 Free energy of the ion-electron system (eV)
  ---------------------------------------------------
  alpha Z        PSCENC =      1222.31733823
  Ewald energy   TEWEN  =    247891.88410989
  -Hartree energ DENC   =   -316534.89879250
  -exchange      EXHF   =         0.00000000
  -V(xc)+E(xc)   XCENC  =      2070.09731893
  PAW double counting   =     74321.64033291   -78716.63005627
  entropy T*S    EENTRO =         0.00000000
  eigenvalues    EBANDS =     -1313.02707625
  atomic energy  EATOM  =     70700.37078785
  Solvation  Ediel_sol  =         0.00000000
  ---------------------------------------------------
  free energy    TOTEN  =      -358.24603721 eV

  energy without entropy =     -358.24603721  energy(sigma->0) =     -358.24603721


--------------------------------------------------------------------------------------------------------




--------------------------------------- Iteration      1(  12)  ---------------------------------------


    POTLOK:  cpu time    0.4149: real time    0.4263
    SETDIJ:  cpu time    0.0232: real time    0.0232
    EDDIAG:  cpu time    6.0176: real time    6.0207
  RMM-DIIS:  cpu time   20.9605: real time   20.9795
    ORTHCH:  cpu time    1.7118: real time    1.7123
 BZINTS: Fermi energy:  0.483507;664.000000 electrons
         Band energy:***********;  BLOECHL correction: -0.051749
       DOS:  cpu time    0.0589: real time    0.0589
    CHARGE:  cpu time    1.1214: real time    1.1216
    MIXING:  cpu time    0.0079: real time    0.0079
    --------------------------------------------
      LOOP:  cpu time   30.3170: real time   30.3504

 eigenvalue-minimisations  :  8775
 total energy-change (2. order) : 0.6081735E-03  (-0.8510016E-04)
 number of electron     664.0000031 magnetization      42.8540396
 augmentation part      397.4208505 magnetization      40.2375269

 DIPCOR: dipole corrections for dipol
 direction  3 min pos   234,
 dipolmoment           0.000000      0.000000      0.342277 electrons x Angstroem
 Tr[quadrupol]    -10848.302948

 energy correction for charged system         0.000000 eV
 dipol+quadrupol energy correction           -0.005838 eV
 added-field ion interaction         -8.152178 eV  (added to PSCEN)


 Broyden mixing:
  rms(total) = 0.47623E-01    rms(broyden)= 0.47595E-01
  rms(prec ) = 0.52315E-01
  weight for this iteration     100.00

 eigenvalues of (default mixing * dielectric matrix)
  average eigenvalue GAMMA=   0.3153
  1.0088  1.0088  0.6024  0.3111  0.1352  0.0337  0.0985  0.0873  0.0678  0.0589
  0.0554

 Free energy of the ion-electron system (eV)
  ---------------------------------------------------
  alpha Z        PSCENC =      1219.32392079
  Ewald energy   TEWEN  =    247891.88410989
  -Hartree energ DENC   =   -316534.75053018
  -exchange      EXHF   =         0.00000000
  -V(xc)+E(xc)   XCENC  =      2070.10065498
  PAW double counting   =     74321.65818447   -78716.66874586
  entropy T*S    EENTRO =         0.00000000
  eigenvalues    EBANDS =     -1310.16381098
  atomic energy  EATOM  =     70700.37078785
  Solvation  Ediel_sol  =         0.00000000
  ---------------------------------------------------
  free energy    TOTEN  =      -358.24542904 eV

  energy without entropy =     -358.24542904  energy(sigma->0) =     -358.24542904


--------------------------------------------------------------------------------------------------------




--------------------------------------- Iteration      1(  13)  ---------------------------------------


    POTLOK:  cpu time    0.4180: real time    0.4297
    SETDIJ:  cpu time    0.0231: real time    0.0231
    EDDIAG:  cpu time    6.0013: real time    6.0041
  RMM-DIIS:  cpu time   21.0986: real time   21.1136
    ORTHCH:  cpu time    1.7106: real time    1.7110
 BZINTS: Fermi energy:  0.485537;664.000000 electrons
         Band energy:***********;  BLOECHL correction: -0.051761
       DOS:  cpu time    0.0588: real time    0.0588
    CHARGE:  cpu time    1.1220: real time    1.1223
    MIXING:  cpu time    0.0081: real time    0.0081
    --------------------------------------------
      LOOP:  cpu time   30.4397: real time   30.4707

 eigenvalue-minimisations  :  8808
 total energy-change (2. order) : 0.6137756E-03  (-0.4639693E-04)
 number of electron     664.0000031 magnetization      42.8632864
 augmentation part      397.4237469 magnetization      40.2508769

 DIPCOR: dipole corrections for dipol
 direction  3 min pos   233,
 dipolmoment           0.000000      0.000000      0.343406 electrons x Angstroem
 Tr[quadrupol]    -10848.256225

 energy correction for charged system         0.000000 eV
 dipol+quadrupol energy correction           -0.005876 eV
 added-field ion interaction         -9.677760 eV  (added to PSCEN)


 Broyden mixing:
  rms(total) = 0.41816E-01    rms(broyden)= 0.41800E-01
  rms(prec ) = 0.44564E-01
  weight for this iteration     100.00

 eigenvalues of (default mixing * dielectric matrix)
  average eigenvalue GAMMA=   0.3013
  1.1429  0.8417  0.5873  0.4071  0.1331  0.0337  0.1051  0.0887  0.0887  0.0712
  0.0578  0.0588

 Free energy of the ion-electron system (eV)
  ---------------------------------------------------
  alpha Z        PSCENC =      1217.79830082
  Ewald energy   TEWEN  =    247891.88410989
  -Hartree energ DENC   =   -316534.57625661
  -exchange      EXHF   =         0.00000000
  -V(xc)+E(xc)   XCENC  =      2070.10394504
  PAW double counting   =     74321.55446610   -78716.55424424
  entropy T*S    EENTRO =         0.00000000
  eigenvalues    EBANDS =     -1308.82592412
  atomic energy  EATOM  =     70700.37078785
  Solvation  Ediel_sol  =         0.00000000
  ---------------------------------------------------
  free energy    TOTEN  =      -358.24481526 eV

  energy without entropy =     -358.24481526  energy(sigma->0) =     -358.24481526


--------------------------------------------------------------------------------------------------------




--------------------------------------- Iteration      1(  14)  ---------------------------------------


    POTLOK:  cpu time    0.4139: real time    0.4254
    SETDIJ:  cpu time    0.0231: real time    0.0231
    EDDIAG:  cpu time    6.0135: real time    6.0162
  RMM-DIIS:  cpu time   20.9900: real time   21.0050
    ORTHCH:  cpu time    1.7162: real time    1.7167
 BZINTS: Fermi energy:  0.471865;664.000000 electrons
         Band energy:***********;  BLOECHL correction: -0.051841
       DOS:  cpu time    0.0563: real time    0.0563
    CHARGE:  cpu time    1.1241: real time    1.1243
    MIXING:  cpu time    0.0084: real time    0.0084
    --------------------------------------------
      LOOP:  cpu time   30.3462: real time   30.3754

 eigenvalue-minimisations  :  8789
 total energy-change (2. order) : 0.4708886E-03  (-0.2699300E-04)
 number of electron     664.0000031 magnetization      42.8673709
 augmentation part      397.4273620 magnetization      40.2590690

 DIPCOR: dipole corrections for dipol
 direction  3 min pos   239,
 dipolmoment           0.000000      0.000000      0.343838 electrons x Angstroem
 Tr[quadrupol]    -10848.532369

 energy correction for charged system         0.000000 eV
 dipol+quadrupol energy correction           -0.005891 eV
 added-field ion interaction         -0.686406 eV  (added to PSCEN)


 Broyden mixing:
  rms(total) = 0.28739E-01    rms(broyden)= 0.28728E-01
  rms(prec ) = 0.30769E-01
  weight for this iteration     100.00

 eigenvalues of (default mixing * dielectric matrix)
  average eigenvalue GAMMA=   0.2859
  1.1755  0.7954  0.5458  0.4004  0.1460  0.1460  0.1222  0.0337  0.0959  0.0784
  0.0649  0.0593  0.0528

 Free energy of the ion-electron system (eV)
  ---------------------------------------------------
  alpha Z        PSCENC =      1226.78963979
  Ewald energy   TEWEN  =    247891.88410989
  -Hartree energ DENC   =   -316534.55950399
  -exchange      EXHF   =         0.00000000
  -V(xc)+E(xc)   XCENC  =      2070.10504780
  PAW double counting   =     74321.49026381   -78716.47982702
  entropy T*S    EENTRO =         0.00000000
  eigenvalues    EBANDS =     -1317.84486252
  atomic energy  EATOM  =     70700.37078785
  Solvation  Ediel_sol  =         0.00000000
  ---------------------------------------------------
  free energy    TOTEN  =      -358.24434438 eV

  energy without entropy =     -358.24434438  energy(sigma->0) =     -358.24434438


--------------------------------------------------------------------------------------------------------




--------------------------------------- Iteration      1(  15)  ---------------------------------------


    POTLOK:  cpu time    0.4120: real time    0.4238
    SETDIJ:  cpu time    0.0231: real time    0.0231
    EDDIAG:  cpu time    6.0054: real time    6.0080
  RMM-DIIS:  cpu time   21.1007: real time   21.1147
    ORTHCH:  cpu time    1.7096: real time    1.7099
 BZINTS: Fermi energy:  0.476454;664.000000 electrons
         Band energy:***********;  BLOECHL correction: -0.051799
       DOS:  cpu time    0.0573: real time    0.0573
    CHARGE:  cpu time    1.1233: real time    1.1236
    MIXING:  cpu time    0.0086: real time    0.0086
    --------------------------------------------
      LOOP:  cpu time   30.4400: real time   30.4689

 eigenvalue-minimisations  :  8838
 total energy-change (2. order) : 0.5118854E-05  (-0.1231441E-04)
 number of electron     664.0000031 magnetization      42.8730321
 augmentation part      397.4273406 magnetization      40.2638441

 DIPCOR: dipole corrections for dipol
 direction  3 min pos   237,
 dipolmoment           0.000000      0.000000      0.343762 electrons x Angstroem
 Tr[quadrupol]    -10848.441484

 energy correction for charged system         0.000000 eV
 dipol+quadrupol energy correction           -0.005889 eV
 added-field ion interaction         -3.686776 eV  (added to PSCEN)


 Broyden mixing:
  rms(total) = 0.32482E-01    rms(broyden)= 0.32472E-01
  rms(prec ) = 0.34987E-01
  weight for this iteration     100.00

 eigenvalues of (default mixing * dielectric matrix)
  average eigenvalue GAMMA=   0.2915
  1.1820  0.7790  0.5246  0.4330  0.4330  0.1460  0.1272  0.0337  0.0962  0.0854
  0.0651  0.0651  0.0566  0.0538

 Free energy of the ion-electron system (eV)
  ---------------------------------------------------
  alpha Z        PSCENC =      1223.78927206
  Ewald energy   TEWEN  =    247891.88410989
  -Hartree energ DENC   =   -316534.56739775
  -exchange      EXHF   =         0.00000000
  -V(xc)+E(xc)   XCENC  =      2070.10524735
  PAW double counting   =     74321.49086817   -78716.48168605
  entropy T*S    EENTRO =         0.00000000
  eigenvalues    EBANDS =     -1314.83554079
  atomic energy  EATOM  =     70700.37078785
  Solvation  Ediel_sol  =         0.00000000
  ---------------------------------------------------
  free energy    TOTEN  =      -358.24433926 eV

  energy without entropy =     -358.24433926  energy(sigma->0) =     -358.24433926


--------------------------------------------------------------------------------------------------------




--------------------------------------- Iteration      1(  16)  ---------------------------------------


    POTLOK:  cpu time    0.4165: real time    0.4274
    SETDIJ:  cpu time    0.0232: real time    0.0232
    EDDIAG:  cpu time    6.0096: real time    6.0123
  RMM-DIIS:  cpu time   21.0411: real time   21.0610
    ORTHCH:  cpu time    1.7114: real time    1.7118
 BZINTS: Fermi energy:  0.478862;664.000000 electrons
         Band energy:***********;  BLOECHL correction: -0.051728
       DOS:  cpu time    0.0588: real time    0.0588
    CHARGE:  cpu time    1.1234: real time    1.1237
    MIXING:  cpu time    0.0089: real time    0.0089
    --------------------------------------------
      LOOP:  cpu time   30.3928: real time   30.4271

 eigenvalue-minimisations  :  8790
 total energy-change (2. order) :-0.1101766E-03  (-0.1315280E-04)
 number of electron     664.0000031 magnetization      42.8795977
 augmentation part      397.4265247 magnetization      40.2681373

 DIPCOR: dipole corrections for dipol
 direction  3 min pos   236,
 dipolmoment           0.000000      0.000000      0.343825 electrons x Angstroem
 Tr[quadrupol]    -10848.395423

 energy correction for charged system         0.000000 eV
 dipol+quadrupol energy correction           -0.005891 eV
 added-field ion interaction         -5.187983 eV  (added to PSCEN)


 Broyden mixing:
  rms(total) = 0.31239E-01    rms(broyden)= 0.31233E-01
  rms(prec ) = 0.33821E-01
  weight for this iteration     100.00

 eigenvalues of (default mixing * dielectric matrix)
  average eigenvalue GAMMA=   0.3021
  1.1872  0.7936  0.5746  0.5746  0.5206  0.2010  0.1353  0.0337  0.1033  0.0841
  0.0841  0.0693  0.0597  0.0583  0.0515

 Free energy of the ion-electron system (eV)
  ---------------------------------------------------
  alpha Z        PSCENC =      1222.28806254
  Ewald energy   TEWEN  =    247891.88410989
  -Hartree energ DENC   =   -316534.59678008
  -exchange      EXHF   =         0.00000000
  -V(xc)+E(xc)   XCENC  =      2070.10503287
  PAW double counting   =     74321.52999201   -78716.53028329
  entropy T*S    EENTRO =         0.00000000
  eigenvalues    EBANDS =     -1313.29537123
[...]
   -.706E-01 0.766E-01 0.319E+04   -.136E-01 -.300E-02 -.319E+04   0.293E-02 0.894E-03 -.129E+01   0.827E-01 -.728E-01 0.160E-01
   0.419E-01 -.101E+00 -.292E+04   -.328E-01 0.757E-01 0.292E+04   -.420E-03 -.145E-02 0.304E+01   -.103E-01 0.295E-01 0.134E-01
   -.356E+01 0.213E+01 0.118E+04   0.362E+01 -.215E+01 -.118E+04   -.444E-01 0.276E-01 -.147E+00   0.186E-01 -.339E-01 -.260E-01
   0.305E-01 0.464E+01 -.864E+03   -.720E-01 -.460E+01 0.863E+03   -.395E-03 -.541E-01 0.414E+00   0.428E-01 0.290E-01 -.111E-01
   0.110E+00 -.440E-01 0.319E+04   -.218E+00 0.118E+00 -.319E+04   0.385E-01 -.243E-01 -.141E+01   0.544E-01 -.429E-01 -.297E-02
   0.975E+02 -.561E+02 -.291E+04   -.991E+02 0.570E+02 0.291E+04   0.168E+01 -.969E+00 0.476E+00   -.233E-01 0.136E-01 0.243E-01
   0.108E-01 0.728E-01 0.118E+04   0.859E-02 -.320E-01 -.118E+04   -.201E-02 -.561E-02 -.233E+00   -.118E-01 -.406E-01 -.523E-02
   -.399E+01 -.228E+01 -.864E+03   0.393E+01 0.228E+01 0.863E+03   0.471E-01 0.285E-01 0.412E+00   0.618E-02 -.404E-01 0.158E-01
   -.111E+00 -.125E+00 0.319E+04   0.226E+00 0.129E+00 -.319E+04   -.362E-01 -.193E-01 -.143E+01   -.641E-01 0.219E-01 0.453E-02
   -.974E+02 -.562E+02 -.291E+04   0.991E+02 0.571E+02 0.291E+04   -.167E+01 -.964E+00 0.473E+00   -.393E-01 0.130E-01 -.268E-02
   -.376E-01 -.420E+01 0.118E+04   0.799E-01 0.428E+01 -.118E+04   0.102E-02 -.395E-01 -.146E+00   -.460E-01 0.362E-02 0.552E-01
   0.403E+01 -.237E+01 -.864E+03   -.395E+01 0.236E+01 0.863E+03   -.444E-01 0.264E-01 0.414E+00   -.213E-01 -.298E-01 -.110E-01
   0.211E+00 -.128E+00 0.319E+04   -.209E+00 0.122E+00 -.319E+04   0.363E-01 -.238E-01 -.141E+01   -.533E-01 0.352E-01 0.808E-02
   0.976E+02 -.564E+02 -.291E+04   -.992E+02 0.574E+02 0.291E+04   0.168E+01 -.968E+00 0.477E+00   0.387E-01 -.195E-01 -.351E-02
   -.107E-02 0.347E-01 0.118E+04   -.367E-02 -.276E-01 -.118E+04   -.294E-02 -.441E-02 -.237E+00   0.120E-01 -.778E-02 0.838E-01
   -.411E+01 -.241E+01 -.864E+03   0.405E+01 0.237E+01 0.864E+03   0.468E-01 0.282E-01 0.413E+00   0.230E-02 0.133E-01 0.269E-01
   -.210E+00 -.533E-01 0.319E+04   0.201E+00 0.112E+00 -.319E+04   -.387E-01 -.215E-01 -.142E+01   0.629E-01 -.289E-01 0.127E-02
   -.976E+02 -.563E+02 -.291E+04   0.992E+02 0.572E+02 0.291E+04   -.168E+01 -.969E+00 0.481E+00   0.239E-01 -.224E-01 0.186E-01
   0.236E-01 -.407E+01 0.118E+04   -.788E-01 0.422E+01 -.118E+04   0.358E-02 -.467E-01 -.149E+00   0.459E-01 -.654E-01 0.104E-01
   0.405E+01 -.231E+01 -.864E+03   -.401E+01 0.228E+01 0.863E+03   -.443E-01 0.269E-01 0.415E+00   0.131E-01 0.709E-03 0.534E-01
   -.417E-01 0.190E+00 0.319E+04   -.273E-02 -.252E+00 -.319E+04   -.384E-02 0.460E-01 -.143E+01   0.475E-01 -.391E-02 0.160E-02
   0.152E-02 0.112E+03 -.291E+04   -.337E-01 -.114E+03 0.291E+04   0.414E-03 0.193E+01 0.484E+00   0.324E-01 0.381E-02 0.129E-01
   0.357E+01 0.211E+01 0.118E+04   -.368E+01 -.214E+01 -.118E+04   0.404E-01 0.217E-01 -.154E+00   0.409E-01 -.633E-03 0.478E-02
   0.855E-01 0.894E-01 -.890E+03   -.801E-01 -.102E+00 0.891E+03   -.455E-02 0.421E-02 -.119E+01   -.531E-02 0.850E-02 0.640E-01
   -.701E-01 0.458E-02 0.319E+04   0.145E-01 0.624E-02 -.319E+04   0.346E-02 0.629E-03 -.129E+01   0.531E-01 -.108E-01 -.433E-02
   -.314E-01 -.125E+00 -.292E+04   0.884E-01 0.127E+00 0.292E+04   -.414E-02 -.401E-02 0.304E+01   -.553E-01 0.347E-02 0.268E-01
   -.368E+01 0.203E+01 0.118E+04   0.375E+01 -.209E+01 -.118E+04   -.412E-01 0.224E-01 -.146E+00   -.120E-02 0.143E-01 -.187E-01
   -.626E-01 0.468E+01 -.863E+03   0.662E-01 -.462E+01 0.863E+03   0.314E-04 -.545E-01 0.414E+00   -.244E-02 0.265E-02 0.344E-01
   0.433E-01 0.105E+00 0.319E+04   0.260E-02 -.245E+00 -.319E+04   -.254E-02 0.468E-01 -.144E+01   -.435E-01 0.775E-01 0.938E-02
   0.290E-01 0.113E+03 -.291E+04   0.265E-02 -.115E+03 0.291E+04   0.784E-03 0.193E+01 0.480E+00   -.303E-01 0.176E-02 0.503E-02
   0.366E+01 0.205E+01 0.118E+04   -.371E+01 -.214E+01 -.118E+04   0.372E-01 0.191E-01 -.147E+00   -.260E-01 0.510E-01 0.450E-01
   -.951E-01 -.368E-01 -.890E+03   0.919E-01 0.466E-01 0.891E+03   -.469E-02 0.445E-02 -.119E+01   0.382E-02 -.124E-01 -.164E-02
   0.694E-01 -.759E-01 0.319E+04   -.135E-01 -.114E-01 -.319E+04   0.364E-02 0.142E-02 -.129E+01   -.571E-01 0.858E-01 0.164E-01
   0.154E-01 -.312E-01 -.292E+04   -.702E-01 0.428E-01 0.292E+04   0.158E-02 -.275E-03 0.304E+01   0.530E-01 -.926E-02 -.172E-01
   -.353E+01 0.210E+01 0.118E+04   0.362E+01 -.219E+01 -.118E+04   -.463E-01 0.296E-01 -.147E+00   -.139E-01 0.380E-01 0.711E-01
   0.486E-01 0.469E+01 -.864E+03   -.497E-01 -.462E+01 0.863E+03   0.481E-03 -.551E-01 0.414E+00   0.397E-02 -.521E-02 0.323E-01
   0.729E-01 0.750E-01 -.231E+04   -.964E-01 -.528E-01 0.234E+04   0.109E-01 -.161E-02 -.282E+02   0.129E-01 -.197E-01 -.192E-01
   -.155E+00 -.812E-01 -.231E+04   0.137E+00 0.104E+00 0.234E+04   -.104E-01 -.146E-01 -.282E+02   0.272E-01 -.706E-02 -.110E-01
   0.154E+00 -.194E-01 -.231E+04   -.139E+00 0.237E-01 0.234E+04   0.126E-01 -.831E-02 -.282E+02   -.284E-01 0.645E-02 -.112E-03
   -.833E-01 -.109E+00 -.231E+04   0.104E+00 0.110E+00 0.234E+04   -.105E-01 -.166E-01 -.282E+02   -.133E-01 0.149E-01 0.161E-01
 -----------------------------------------------------------------------------------------------
   0.116E-01 0.517E-01 0.119E+03   0.663E-12 -.246E-11 -.637E-11   -.959E-02 -.509E-01 -.120E+03   -.246E-02 -.359E-02 0.871E+00
 
 
 POSITION                                       TOTAL-FORCE (eV/Angst)
 -----------------------------------------------------------------------------------
     -0.00000      1.94796      2.00000        -0.014628      0.007242      0.271498
     -0.02853      1.96442      8.07221         0.033407     -0.018013      0.026014
      1.24593      1.22862      4.03457         0.004854     -0.004986     -0.261131
      0.00233      0.51054      6.00853        -0.001656     -0.003244     -0.020676
      2.49184      1.94796      2.00000         0.016099      0.009129      0.276373
      2.52064      1.96339      8.07274        -0.033099     -0.014355      0.026578
      3.73777      1.22862      4.03457        -0.003584      0.039492     -0.260898
      2.48925      0.51018      6.00860         0.005406     -0.001080     -0.014417
      4.98369      1.94796      2.00000        -0.013454      0.005191      0.271626
      4.95506      1.96337      8.07293         0.031694     -0.012586      0.016082
      6.22962      1.22862      4.03457         0.004888     -0.005840     -0.259281
      4.98644      0.51017      6.00893        -0.003800     -0.000794     -0.021107
      7.47553      1.94796      2.00000         0.013175      0.004927      0.276875
      7.50482      1.96429      8.07241        -0.029119     -0.016081      0.024196
      8.72146      1.22862      4.03457        -0.004814      0.040844     -0.262007
      7.47308      0.51049      6.00881         0.003934     -0.001517     -0.016152
     -1.24593      4.10596      2.00000         0.000885     -0.016637      0.285036
     -1.24564      4.07284      8.07252         0.000937      0.030872      0.031880
      0.00000      3.38662      4.03457        -0.034914     -0.017931     -0.261241
     -1.24567      2.66739      6.04531        -0.006252      0.000070     -0.032555
      1.24592      4.10596      2.00000         0.001816      0.000364      0.190356
      1.24591      4.10493      7.95911        -0.001233      0.001916      0.070139
      2.49185      3.38662      4.03457         0.033338     -0.020423     -0.258136
      1.24616      2.66397      6.00845         0.001969      0.007471     -0.032435
      3.73776      4.10596      2.00000        -0.001691     -0.018360      0.284970
      3.73765      4.07179      8.07350         0.001280      0.026207      0.022683
      4.98369      3.38662      4.03457        -0.035937     -0.018201     -0.258308
      3.73779      2.66653      6.04561        -0.003693      0.002921     -0.032746
      6.22961      4.10596      2.00000         0.001357      0.001777      0.191599
      6.22974      4.10511      7.95915        -0.001569      0.003185      0.067848
      7.47554      3.38662      4.03457         0.033154     -0.021879     -0.258172
      6.22965      2.66389      6.00867         0.000905      0.006898     -0.033584
     -2.49185      6.26396      2.00000        -0.014742      0.006902      0.271671
     -2.52079      6.28029      8.07222         0.033256     -0.017606      0.023756
     -1.24592      5.54462      4.03457         0.005526     -0.005389     -0.259846
     -2.48948      4.82649      6.00860        -0.002355     -0.001509     -0.020741
     -0.00000      6.26396      2.00000         0.015187      0.006059      0.276331
      0.02877      6.28016      8.07284        -0.031205     -0.018529      0.025529
      1.24593      5.54462      4.03457        -0.002685      0.041493     -0.261817
     -0.00233      4.82663      6.00869         0.004205     -0.002382     -0.015083
      2.49184      6.26396      2.00000        -0.014382      0.006092      0.271166
      2.46302      6.27943      8.07316         0.028868     -0.011690      0.016964
      3.73777      5.54462      4.03457         0.004293     -0.005061     -0.260151
      2.49455      4.82619      6.00894        -0.003417     -0.001812     -0.021887
      4.98369      6.26396      2.00000         0.015169      0.008300      0.275925
      5.01222      6.27972      8.07246        -0.025207     -0.012176      0.024822
      6.22962      5.54462      4.03457        -0.005642      0.040225     -0.260819
      4.98101      4.82609      6.00886         0.005559      0.000268     -0.016525
     -3.73777      8.42196      2.00000        -0.000805     -0.019882      0.284897
     -3.73808      8.38848      8.07253         0.000571      0.031628      0.034261
     -2.49184      7.70262      4.03457        -0.035326     -0.017740     -0.261163
     -3.73801      6.98308      6.04544        -0.004527      0.000218     -0.033081
     -1.24593      8.42196      2.00000         0.001011      0.000735      0.192153
     -1.24607      8.42094      7.95903        -0.002505      0.002296      0.068134
      0.00000      7.70262      4.03457         0.034691     -0.021582     -0.258581
     -1.24594      6.97995      6.00845         0.001184      0.007205     -0.032077
      1.24592      8.42196      2.00000        -0.000202     -0.015651      0.284721
      1.24626      8.38830      8.07339         0.002123      0.029289      0.025048
      2.49185      7.70262      4.03457        -0.036617     -0.019274     -0.258769
      1.24598      6.98296      6.04568        -0.004095      0.001887     -0.032515
      3.73776      8.42196      2.00000         0.002418     -0.000006      0.190089
      3.73796      8.42116      7.95909        -0.000186      0.002023      0.069857
      4.98369      7.70262      4.03457         0.031552     -0.021564     -0.257541
      3.73757      6.97986      6.00871         0.003341      0.007292     -0.034168
      1.24550      1.22844      9.17493         0.000311      0.000935     -0.034361
      3.73794      5.54388      9.17393        -0.002007      0.000816     -0.016912
     -1.24627      5.54458      9.17458        -0.000227      0.002418     -0.030600
      6.23052      1.22872      9.17401        -0.002784     -0.000806     -0.019594
 -----------------------------------------------------------------------------------
    total drift:                               -0.000417     -0.002781      0.027926


--------------------------------------------------------------------------------------------------------



  FREE ENERGIE OF THE ION-ELECTRON SYSTEM (eV)
  ---------------------------------------------------
  free  energy   TOTEN  =      -376.24855100 eV

  energy  without entropy=     -376.24855100  energy(sigma->0) =     -376.24855100
 


--------------------------------------------------------------------------------------------------------


    POTLOK:  cpu time    0.4388: real time    0.4391


--------------------------------------------------------------------------------------------------------


 stress matrix after NEB project (eV)
    -33.97747     -0.07308     -0.01082
     -0.07308    -33.80338      0.07343
     -0.01082      0.07343     -7.70184
  FORCES: max atom, RMS     0.070176    0.028300
  FORCE total and by dimension    0.233370    0.070139
  Stress total and by dimension   48.543558   33.977472
 writing wavefunctions
     LOOP+:  cpu time 1637.7316: real time 1704.5995
    4ORBIT:  cpu time    0.0000: real time    0.0000
 


 total charge     
 
# of ion       s       p       d       tot
------------------------------------------
    1        0.485   0.377   8.306   9.168
    2        0.495   0.504   8.321   9.320
    3        0.500   0.505   8.313   9.319
    4        0.499   0.505   8.318   9.321
    5        0.485   0.377   8.306   9.169
    6        0.495   0.504   8.321   9.320
    7        0.497   0.503   8.310   9.310
    8        0.498   0.505   8.318   9.322
    9        0.485   0.377   8.304   9.167
   10        0.495   0.504   8.321   9.321
   11        0.500   0.505   8.313   9.318
   12        0.498   0.505   8.319   9.323
   13        0.485   0.377   8.304   9.166
   14        0.495   0.505   8.322   9.321
   15        0.497   0.503   8.309   9.309
   16        0.498   0.505   8.319   9.322
   17        0.485   0.377   8.304   9.167
   18        0.495   0.504   8.321   9.320
   19        0.497   0.503   8.309   9.310
   20        0.503   0.507   8.326   9.336
   21        0.489   0.377   8.298   9.164
   22        0.475   0.376   8.354   9.205
   23        0.498   0.503   8.310   9.311
   24        0.499   0.505   8.318   9.322
   25        0.485   0.377   8.306   9.169
   26        0.495   0.504   8.321   9.320
   27        0.497   0.503   8.309   9.310
   28        0.503   0.506   8.327   9.337
   29        0.489   0.377   8.296   9.162
   30        0.475   0.376   8.352   9.203
   31        0.498   0.503   8.309   9.310
   32        0.498   0.505   8.319   9.322
   33        0.485   0.377   8.304   9.167
   34        0.495   0.504   8.321   9.320
   35        0.500   0.505   8.314   9.319
   36        0.499   0.505   8.319   9.322
   37        0.485   0.377   8.305   9.168
   38        0.495   0.504   8.322   9.321
   39        0.497   0.503   8.310   9.310
   40        0.498   0.505   8.318   9.322
   41        0.485   0.377   8.306   9.169
   42        0.495   0.504   8.321   9.321
   43        0.500   0.505   8.314   9.319
   44        0.498   0.505   8.318   9.322
   45        0.485   0.377   8.306   9.169
   46        0.495   0.505   8.321   9.320
   47        0.497   0.503   8.310   9.310
   48        0.498   0.505   8.318   9.322
   49        0.485   0.377   8.306   9.168
   50        0.495   0.504   8.320   9.319
   51        0.497   0.503   8.310   9.310
   52        0.503   0.507   8.327   9.337
   53        0.489   0.377   8.296   9.162
   54        0.475   0.376   8.352   9.203
   55        0.498   0.503   8.309   9.310
   56        0.499   0.505   8.319   9.322
   57        0.485   0.377   8.304   9.167
   58        0.495   0.504   8.322   9.321
   59        0.497   0.503   8.310   9.310
   60        0.503   0.506   8.326   9.336
   61        0.489   0.377   8.298   9.164
   62        0.475   0.376   8.354   9.205
   63        0.498   0.503   8.310   9.311
   64        0.498   0.505   8.318   9.322
   65        1.583   3.337   0.000   4.919
   66        1.583   3.337   0.000   4.920
   67        1.583   3.337   0.000   4.919
   68        1.583   3.337   0.000   4.920
--------------------------------------------------
tot         37.909  43.086 532.210 613.205
 


 magnetization (x)
 
# of ion       s       p       d       tot
------------------------------------------
    1       -0.009  -0.025   0.709   0.676
    2       -0.003  -0.014   0.595   0.579
    3       -0.006  -0.025   0.778   0.748
    4       -0.006  -0.025   0.742   0.712
    5       -0.008  -0.025   0.703   0.670
    6       -0.003  -0.014   0.596   0.579
    7       -0.006  -0.024   0.748   0.717
    8       -0.006  -0.025   0.743   0.713
    9       -0.009  -0.025   0.710   0.676
   10       -0.003  -0.014   0.594   0.577
   11       -0.006  -0.025   0.778   0.748
   12       -0.006  -0.025   0.740   0.709
   13       -0.008  -0.025   0.707   0.674
   14       -0.003  -0.014   0.595   0.579
   15       -0.006  -0.024   0.749   0.719
   16       -0.006  -0.025   0.743   0.712
   17       -0.008  -0.025   0.707   0.673
   18       -0.003  -0.014   0.597   0.580
   19       -0.006  -0.024   0.749   0.719
   20       -0.006  -0.021   0.624   0.597
   21       -0.000  -0.025   0.750   0.725
   22       -0.011  -0.016   0.781   0.754
   23       -0.005  -0.024   0.744   0.715
   24       -0.006  -0.025   0.739   0.708
   25       -0.008  -0.025   0.704   0.671
   26       -0.003  -0.014   0.596   0.579
   27       -0.006  -0.024   0.748   0.718
   28       -0.006  -0.021   0.623   0.596
   29       -0.000  -0.025   0.751   0.726
   30       -0.011  -0.016   0.783   0.755
   31       -0.005  -0.024   0.746   0.717
   32       -0.006  -0.024   0.738   0.708
   33       -0.008  -0.025   0.710   0.677
   34       -0.003  -0.014   0.596   0.579
   35       -0.006  -0.025   0.778   0.747
   36       -0.006  -0.025   0.742   0.711
   37       -0.008  -0.025   0.704   0.671
   38       -0.003  -0.014   0.595   0.578
   39       -0.006  -0.024   0.748   0.717
   40       -0.006  -0.025   0.743   0.712
   41       -0.009  -0.025   0.708   0.674
   42       -0.003  -0.014   0.594   0.577
   43       -0.006  -0.025   0.778   0.747
   44       -0.006  -0.025   0.741   0.710
   45       -0.008  -0.025   0.704   0.671
   46       -0.003  -0.014   0.596   0.580
   47       -0.006  -0.024   0.748   0.718
   48       -0.006  -0.025   0.743   0.712
   49       -0.008  -0.025   0.706   0.673
   50       -0.003  -0.014   0.598   0.582
   51       -0.006  -0.024   0.748   0.718
   52       -0.006  -0.021   0.623   0.596
   53       -0.000  -0.025   0.751   0.726
   54       -0.011  -0.016   0.783   0.756
   55       -0.005  -0.024   0.744   0.715
   56       -0.006  -0.025   0.739   0.708
   57       -0.008  -0.025   0.706   0.673
   58       -0.003  -0.014   0.596   0.579
   59       -0.006  -0.024   0.748   0.718
   60       -0.006  -0.021   0.624   0.597
   61       -0.000  -0.025   0.750   0.725
   62       -0.011  -0.016   0.781   0.754
   63       -0.005  -0.024   0.745   0.716
   64       -0.006  -0.024   0.739   0.709
   65        0.002   0.120   0.000   0.122
   66        0.002   0.119   0.000   0.122
   67        0.002   0.120   0.000   0.122
   68        0.002   0.119   0.000   0.122
--------------------------------------------------
tot         -0.359  -0.922  45.221  43.941
 
 BZINTS: Fermi energy:  0.474715;664.000000 electrons
         Band energy:***********;  BLOECHL correction: -0.054361

 total amount of memory used by VASP MPI-rank0   113814. kBytes
=======================================================================

   base      :      30000. kBytes
   nonlr-proj:      12204. kBytes
   fftplans  :       6402. kBytes
   grid      :      16455. kBytes
   one-center:         93. kBytes
   wavefun   :      48660. kBytes
 
  
  
 General timing and accounting informations for this job:
 ========================================================
  
                  Total CPU time used (sec):     1813.149
                            User time (sec):     1608.922
                          System time (sec):      204.228
                         Elapsed time (sec):     1885.033
  
                   Maximum memory used (kb):      345552.
                   Average memory used (kb):           0.
  
                          Minor page faults:     30584292
                          Major page faults:            0
                 Voluntary context switches:         5116
