       N       E                     dE             d eps       ncg     rms          rms(c)
DAV:   1    -0.449147515783E+03   -0.44915E+03   -0.90360E-02  8418   0.267E+00    0.106E+00
RMM:   2    -0.449302937397E+03   -0.15542E+00   -0.16474E-01  8030   0.126E+00    0.554E+00
RMM:   3    -0.449238937517E+03    0.64000E-01   -0.75161E-02  8012   0.764E-01    0.393E+00
RMM:   4    -0.449218946564E+03    0.19991E-01   -0.30567E-02  8229   0.435E-01    0.255E+00
RMM:   5    -0.449236478618E+03   -0.17532E-01   -0.17016E-02  8415   0.319E-01    0.283E+00
RMM:   6    -0.449202289038E+03    0.34190E-01   -0.88798E-03  8133   0.254E-01    0.868E-01
RMM:   7    -0.449199958154E+03    0.23309E-02   -0.39496E-03  8082   0.166E-01    0.551E-01
RMM:   8    -0.449200026335E+03   -0.68181E-04   -0.22482E-03  8259   0.120E-01    0.630E-01
RMM:   9    -0.449198086947E+03    0.19394E-02   -0.16842E-03  8116   0.115E-01    0.362E-01
RMM:  10    -0.449198485532E+03   -0.39858E-03   -0.12268E-03  8318   0.880E-02    0.573E-01
RMM:  11    -0.449197440284E+03    0.10452E-02   -0.56823E-04  8148   0.646E-02    0.392E-01
RMM:  12    -0.449197476996E+03   -0.36712E-04   -0.39524E-05  8701   0.111E-02    0.402E-01
RMM:  13    -0.449197173177E+03    0.30382E-03   -0.26455E-04  8199   0.389E-02    0.326E-01
RMM:  14    -0.449197067051E+03    0.10613E-03   -0.54340E-04  8071   0.590E-02    0.331E-01
RMM:  15    -0.449196600837E+03    0.46621E-03   -0.77176E-04  8098   0.692E-02    0.322E-01
RMM:  16    -0.449196173589E+03    0.42725E-03   -0.49631E-04  8129   0.593E-02    0.196E-01
RMM:  17    -0.449196302752E+03   -0.12916E-03   -0.26202E-04  8120   0.409E-02    0.205E-01
RMM:  18    -0.449196440507E+03   -0.13775E-03   -0.17318E-04  8120   0.353E-02    0.150E-01
RMM:  19    -0.449197547747E+03   -0.11072E-02   -0.21847E-04  8026   0.366E-02    0.209E-01
RMM:  20    -0.449198201282E+03   -0.65354E-03   -0.16837E-04  8041   0.346E-02    0.103E-01
RMM:  21    -0.449199349504E+03   -0.11482E-02   -0.19840E-04  8036   0.340E-02    0.180E-01
RMM:  22    -0.449200704956E+03   -0.13555E-02   -0.15140E-04  8126   0.303E-02    0.108E-01
RMM:  23    -0.449201660985E+03   -0.95603E-03   -0.11976E-04  8172   0.264E-02    0.125E-01
RMM:  24    -0.449203966756E+03   -0.23058E-02   -0.15503E-04  8067   0.252E-02    0.905E-02
RMM:  25    -0.449204571055E+03   -0.60430E-03   -0.69001E-05  8293   0.197E-02    0.584E-02
RMM:  26    -0.449205710695E+03   -0.11396E-02   -0.81910E-05  8097   0.184E-02    0.808E-02
RMM:  27    -0.449206173910E+03   -0.46322E-03   -0.45068E-05  8360   0.152E-02    0.265E-02
RMM:  28    -0.449206453061E+03   -0.27915E-03   -0.24609E-05  8229   0.105E-02    0.444E-02
RMM:  29    -0.449206636731E+03   -0.18367E-03   -0.18067E-05  8325   0.841E-03    0.193E-02
RMM:  30    -0.449206664694E+03   -0.27964E-04   -0.69742E-06  7313   0.558E-03    0.187E-02
RMM:  31    -0.449206639698E+03    0.24996E-04   -0.56168E-06  6069   0.429E-03    0.128E-02
RMM:  32    -0.449206628504E+03    0.11194E-04   -0.15322E-06  5250   0.342E-03    0.762E-03
RMM:  33    -0.449206623035E+03    0.54691E-05   -0.83949E-07  4558   0.248E-03    0.872E-03
RMM:  34    -0.449206622490E+03    0.54541E-06   -0.55491E-07  4443   0.228E-03
   1 F= -.46487849E+03 E0= -.46487849E+03  d E =0.000000E+00  mag=    67.3671
