 vasp.5.4.4.18Apr17-6-g9f103f2a35 (build Dec 15 2018 21:27:11) complex          
  
 executed on             LinuxIFC date 2022.03.11  23:57:42
 running on   72 total cores
 distrk:  each k-point on   72 cores,    1 groups
 distr:  one band on NCORES_PER_BAND=  24 cores,    3 groups


--------------------------------------------------------------------------------------------------------


 INCAR:
 POTCAR:    PAW_PBE Ni 02Aug2007                  
 POTCAR:    PAW_PBE Fe 06Sep2000                  
 POTCAR:    PAW_PBE O 08Apr2002                   

 ----------------------------------------------------------------------------- 
|                                                                             |
|           W    W    AA    RRRRR   N    N  II  N    N   GGGG   !!!           |
|           W    W   A  A   R    R  NN   N  II  NN   N  G    G  !!!           |
|           W    W  A    A  R    R  N N  N  II  N N  N  G       !!!           |
|           W WW W  AAAAAA  RRRRR   N  N N  II  N  N N  G  GGG   !            |
|           WW  WW  A    A  R   R   N   NN  II  N   NN  G    G                |
|           W    W  A    A  R    R  N    N  II  N    N   GGGG   !!!           |
|                                                                             |
|      For optimal performance we recommend to set                            |
|        NCORE= 4 - approx SQRT( number of cores)                             |
|      NCORE specifies how many cores store one orbital (NPAR=cpu/NCORE).     |
|      This setting can  greatly improve the performance of VASP for DFT.     |
|      The default,   NCORE=1            might be grossly inefficient         |
|      on modern multi-core architectures or massively parallel machines.     |
|      Do your own testing !!!!                                               |
|      Unfortunately you need to use the default for GW and RPA calculations. |
|      (for HF NCORE is supported but not extensively tested yet)             |
|                                                                             |
 ----------------------------------------------------------------------------- 

 POTCAR:    PAW_PBE Ni 02Aug2007                  
   VRHFIN =Ni:                                                                  
   LEXCH  = PE                                                                  
   EATOM  =  1077.6739 eV,   79.2068 Ry                                         
                                                                                
   TITEL  = PAW_PBE Ni 02Aug2007                                                
   LULTRA =        F    use ultrasoft PP ?                                      
   IUNSCR =        1    unscreen: 0-lin 1-nonlin 2-no                           
   RPACOR =    2.000    partial core radius                                     
   POMASS =   58.690; ZVAL   =   10.000    mass and valenz                      
   RCORE  =    2.300    outmost cutoff radius                                   
   RWIGS  =    2.430; RWIGS  =    1.286    wigner-seitz radius (au A)           
   ENMAX  =  269.532; ENMIN  =  202.149 eV                                      
   RCLOC  =    1.201    cutoff for local pot                                    
   LCOR   =        T    correct aug charges                                     
   LPAW   =        T    paw PP                                                  
   EAUG   =  544.565                                                            
   DEXC   =    0.000                                                            
   RMAX   =    2.357    core radius for proj-oper                               
   RAUG   =    1.300    factor for augmentation sphere                          
   RDEP   =    2.390    radius for radial grids                                 
   RDEPT  =    1.838    core radius for aug-charge                              
                                                                                
   Atomic configuration                                                         
    9 entries                                                                   
     n  l   j            E        occ.                                          
     1  0  0.50     -8206.4253   2.0000                                         
     2  0  0.50      -976.1748   2.0000                                         
     2  1  1.50      -839.0571   6.0000                                         
     3  0  0.50      -105.9991   2.0000                                         
     3  1  1.50       -66.4603   6.0000                                         
     3  2  2.50        -4.6458   9.0000                                         
     4  0  0.50        -4.4926   1.0000                                         
     4  1  1.50        -4.0817   0.0000                                         
     4  3  2.50        -1.3606   0.0000                                         
   Description                                                                  
     l       E           TYP  RCUT    TYP  RCUT                                 
     2     -4.6457903     23  2.300                                             
     2     -6.0063729     23  2.300                                             
     0     -4.4925590     23  2.300                                             
     0      5.0102601     23  2.300                                             
     1     -2.7211652     23  2.300                                             
     1     16.5183231     23  2.300                                             
  local pseudopotential read in
  partial core-charges read in
  partial kinetic energy density read in
  atomic valenz-charges read in
  non local Contribution for L=           2  read in
    real space projection operators read in
  non local Contribution for L=           2  read in
    real space projection operators read in
  non local Contribution for L=           0  read in
    real space projection operators read in
  non local Contribution for L=           0  read in
    real space projection operators read in
  non local Contribution for L=           1  read in
    real space projection operators read in
  non local Contribution for L=           1  read in
    real space projection operators read in
    PAW grid and wavefunctions read in
 
   number of l-projection  operators is LMAX  =           6
   number of lm-projection operators is LMMAX =          18
 
 POTCAR:    PAW_PBE Fe 06Sep2000                  
   VRHFIN =Fe:  d7 s1                                                           
   LEXCH  = PE                                                                  
   EATOM  =   594.3153 eV,   43.6809 Ry                                         
                                                                                
   TITEL  = PAW_PBE Fe 06Sep2000                                                
   LULTRA =        F    use ultrasoft PP ?                                      
   IUNSCR =        1    unscreen: 0-lin 1-nonlin 2-no                           
   RPACOR =    2.000    partial core radius                                     
   POMASS =   55.847; ZVAL   =    8.000    mass and valenz                      
   RCORE  =    2.300    outmost cutoff radius                                   
   RWIGS  =    2.460; RWIGS  =    1.302    wigner-seitz radius (au A)           
   ENMAX  =  267.882; ENMIN  =  200.911 eV                                      
   RCLOC  =    1.701    cutoff for local pot                                    
   LCOR   =        T    correct aug charges                                     
   LPAW   =        T    paw PP                                                  
   EAUG   =  511.368                                                            
   DEXC   =    0.000                                                            
   RMAX   =    2.356    core radius for proj-oper                               
   RAUG   =    1.300    factor for augmentation sphere                          
   RDEP   =    2.442    radius for radial grids                                 
   RDEPT  =    1.890    core radius for aug-charge                              
                                                                                
   Atomic configuration                                                         
    9 entries                                                                   
     n  l   j            E        occ.                                          
     1  0  0.50     -6993.8440   2.0000                                         
     2  0  0.50      -814.6047   2.0000                                         
     2  1  1.50      -693.3689   6.0000                                         
     3  0  0.50       -89.4732   2.0000                                         
     3  1  1.50       -55.6373   6.0000                                         
     3  2  2.50        -3.8151   7.0000                                         
     4  0  0.50        -4.2551   1.0000                                         
     4  1  1.50        -3.4015   0.0000                                         
     4  3  2.50        -1.3606   0.0000                                         
   Description                                                                  
     l       E           TYP  RCUT    TYP  RCUT                                 
     2     -3.8151135     23  2.300                                             
     2     -5.1756961     23  2.300                                             
     0     -4.2550963     23  2.300                                             
     0      7.2035603     23  2.300                                             
     1     -2.7211652     23  2.300                                             
     1     18.4316424     23  2.300                                             
  local pseudopotential read in
  partial core-charges read in
  partial kinetic energy density read in
  atomic valenz-charges read in
  non local Contribution for L=           2  read in
    real space projection operators read in
  non local Contribution for L=           2  read in
    real space projection operators read in
  non local Contribution for L=           0  read in
    real space projection operators read in
  non local Contribution for L=           0  read in
    real space projection operators read in
  non local Contribution for L=           1  read in
    real space projection operators read in
  non local Contribution for L=           1  read in
    real space projection operators read in
    PAW grid and wavefunctions read in
 
   number of l-projection  operators is LMAX  =           6
   number of lm-projection operators is LMMAX =          18
 
 POTCAR:    PAW_PBE O 08Apr2002                   
   VRHFIN =O: s2p4                                                              
   LEXCH  = PE                                                                  
   EATOM  =   432.3788 eV,   31.7789 Ry                                         
                                                                                
   TITEL  = PAW_PBE O 08Apr2002                                                 
   LULTRA =        F    use ultrasoft PP ?                                      
   IUNSCR =        1    unscreen: 0-lin 1-nonlin 2-no                           
   RPACOR =    1.200    partial core radius                                     
   POMASS =   16.000; ZVAL   =    6.000    mass and valenz                      
   RCORE  =    1.520    outmost cutoff radius                                   
   RWIGS  =    1.550; RWIGS  =    0.820    wigner-seitz radius (au A)           
   ENMAX  =  400.000; ENMIN  =  300.000 eV                                      
   ICORE  =        2    local potential                                         
   LCOR   =        T    correct aug charges                                     
   LPAW   =        T    paw PP                                                  
   EAUG   =  605.392                                                            
   DEXC   =    0.000                                                            
   RMAX   =    1.553    core radius for proj-oper                               
   RAUG   =    1.300    factor for augmentation sphere                          
   RDEP   =    1.550    radius for radial grids                                 
   RDEPT  =    1.329    core radius for aug-charge                              
                                                                                
   Atomic configuration                                                         
    4 entries                                                                   
     n  l   j            E        occ.                                          
     1  0  0.50      -514.6923   2.0000                                         
     2  0  0.50       -23.9615   2.0000                                         
     2  1  0.50        -9.0305   4.0000                                         
     3  2  1.50        -9.5241   0.0000                                         
   Description                                                                  
     l       E           TYP  RCUT    TYP  RCUT                                 
     0    -23.9615318     23  1.200                                             
     0     -9.5240782     23  1.200                                             
     1     -9.0304911     23  1.520                                             
     1      8.1634956     23  1.520                                             
     2     -9.5240782      7  1.500                                             
  local pseudopotential read in
  partial core-charges read in
  partial kinetic energy density read in
  kinetic energy density of atom read in
  atomic valenz-charges read in
  non local Contribution for L=           0  read in
    real space projection operators read in
  non local Contribution for L=           0  read in
    real space projection operators read in
  non local Contribution for L=           1  read in
    real space projection operators read in
  non local Contribution for L=           1  read in
    real space projection operators read in
    PAW grid and wavefunctions read in
 
   number of l-projection  operators is LMAX  =           4
   number of lm-projection operators is LMMAX =           8
 
 Optimization of the real space projectors (new method)

 maximal supplied QI-value         = 16.25
 optimisation between [QCUT,QGAM] = [ 11.54, 23.24] = [ 37.28,151.24] Ry 
 Optimized for a Real-space Cutoff    1.45 Angstroem

   l    n(q)    QCUT    max X(q) W(low)/X(q) W(high)/X(q)  e(spline) 
   2      9    11.539    60.317    0.19E-03    0.47E-04    0.16E-06
   2      9    11.539    55.921    0.19E-03    0.48E-04    0.16E-06
   0     10    11.539    51.690    0.80E-04    0.50E-04    0.24E-06
   0     10    11.539    30.015    0.73E-04    0.45E-04    0.22E-06
   1     10    11.539    18.849    0.87E-04    0.16E-03    0.71E-07
   1     10    11.539    14.624    0.73E-04    0.13E-03    0.64E-07
 Optimization of the real space projectors (new method)

 maximal supplied QI-value         = 16.25
 optimisation between [QCUT,QGAM] = [ 11.54, 23.24] = [ 37.28,151.24] Ry 
 Optimized for a Real-space Cutoff    1.53 Angstroem

   l    n(q)    QCUT    max X(q) W(low)/X(q) W(high)/X(q)  e(spline) 
   2     10    11.539    80.901    0.11E-03    0.14E-03    0.21E-06
   2     10    11.539    75.754    0.11E-03    0.14E-03    0.22E-06
   0     11    11.539    58.752    0.52E-04    0.18E-04    0.33E-06
   0     11    11.539    30.679    0.44E-04    0.16E-04    0.30E-06
   1     10    11.539    17.977    0.53E-04    0.29E-04    0.13E-06
   1     10    11.539    13.559    0.44E-04    0.25E-04    0.11E-06
 Optimization of the real space projectors (new method)

 maximal supplied QI-value         = 24.76
 optimisation between [QCUT,QGAM] = [ 11.64, 23.27] = [ 37.91,151.63] Ry 
 Optimized for a Real-space Cutoff    1.14 Angstroem

   l    n(q)    QCUT    max X(q) W(low)/X(q) W(high)/X(q)  e(spline) 
   0      8    11.635    20.381    0.10E-03    0.33E-03    0.24E-06
   0      8    11.635    15.268    0.11E-03    0.35E-03    0.26E-06
   1      7    11.635     5.964    0.24E-03    0.31E-03    0.30E-06
   1      7    11.635     5.382    0.22E-03    0.25E-03    0.26E-06
  PAW_PBE Ni 02Aug2007                  :
 energy of atom  1       EATOM=-1077.6739
 kinetic energy error for atom=    0.0030 (will be added to EATOM!!)
  PAW_PBE Fe 06Sep2000                  :
 energy of atom  2       EATOM= -594.3153
 kinetic energy error for atom=    0.0026 (will be added to EATOM!!)
  PAW_PBE O 08Apr2002                   :
 energy of atom  3       EATOM= -432.3788
 kinetic energy error for atom=    0.0208 (will be added to EATOM!!)
 
 
 POSCAR: POSCAR                                  
  positions in direct lattice
  velocities in cartesian coordinates
 exchange correlation table for  LEXCH =        8
   RHO(1)=    0.500       N(1)  =     2000
   RHO(2)=  100.500       N(2)  =     4000

 VTST: version 3.2, (02/03/18)

 CHAIN: initializing optimizer
 
 OPT: Using VASP Dynamics algorithm
 CHAIN: Read ICHAIN            0
 
 POSCAR: POSCAR                                  
  positions in direct lattice
  velocities in cartesian coordinates
 


--------------------------------------------------------------------------------------------------------


 ion  position               nearest neighbor table
   1  0.999  0.001  0.191-  35 2.47  59 2.49  23 2.50  32 2.50   5 2.52  40 2.52  37 2.52   2 2.53
                             4 2.53  21 2.54  62 2.54  34 2.54
   2  0.248  0.999  0.192-  59 2.46  50 2.47   6 2.47  36 2.48  37 2.50  60 2.50   3 2.51  28 2.52
                             5 2.52  21 2.53   1 2.53   8 2.56
   3  0.499  0.002  0.192-  39 2.43  61 2.47  36 2.49  30 2.50  60 2.50  34 2.51   2 2.51   8 2.52
                            11 2.52   7 2.53  50 2.54  51 2.54
   4  0.998  0.251  0.192-  35 2.47  43 2.48  42 2.49  19 2.50  34 2.50  13 2.50   7 2.53   1 2.53
                            40 2.53   5 2.55  46 2.55  10 2.55
   5  0.249  0.249  0.191-  35 2.48  36 2.48  45 2.50   6 2.50  37 2.50  46 2.50   1 2.52  42 2.52
                             2 2.52  16 2.54   4 2.55  44 2.55
   6  0.333  0.165  0.286-  38 2.44   9 2.44  36 2.45   2 2.47  17 2.50   5 2.50  15 2.50  45 2.51
                            35 2.55  60 2.55  59 2.56  39 2.57
   7  0.749  0.253  0.193-  18 2.44  39 2.46  14 2.49  48 2.49  13 2.51  34 2.51   4 2.53   3 2.53
                            11 2.54  36 2.55  19 2.55  10 2.56
   8  0.418  0.084  0.094-  37 2.49  36 2.51  16 2.51   3 2.52  11 2.52  30 2.53  28 2.53  48 2.56
                             2 2.56
   9  0.413  0.087  0.381-  68 1.80  38 2.41   6 2.44  17 2.46  12 2.50  39 2.51  29 2.53  60 2.53
                            49 2.55  31 2.60
  10  0.832  0.164  0.290-  20 2.48  39 2.48  34 2.49  43 2.49  35 2.51  62 2.52  41 2.53  18 2.54
                             4 2.55  61 2.55   7 2.56  12 2.58
  11  0.668  0.085  0.096-  34 2.51  40 2.51  48 2.51   8 2.52   3 2.52  19 2.53  30 2.54  63 2.54
                             7 2.54
  12  0.662  0.091  0.390-  69 1.88  68 1.88  49 2.48  20 2.50   9 2.50  39 2.52  10 2.58  41 2.61
                            64 2.62  31 2.63  61 2.73
  13  0.999  0.499  0.193-  43 2.43  22 2.46  18 2.49  53 2.50   4 2.50  42 2.51   7 2.51  19 2.52
                            50 2.52  21 2.53  14 2.53  26 2.55
  14  0.748  0.499  0.192-  56 2.45  15 2.46  44 2.48   7 2.49  48 2.49  18 2.49  57 2.52  26 2.52
                            21 2.52  23 2.53  13 2.53  36 2.57
  15  0.582  0.412  0.286-  49 2.41  14 2.46  36 2.47  56 2.48  44 2.48  18 2.49  45 2.50   6 2.50
                            17 2.51  55 2.53  39 2.59  58 2.64
  16  0.420  0.333  0.094-  36 2.51   8 2.51  37 2.52  57 2.52  44 2.52  46 2.53  24 2.54  48 2.54
                             5 2.54
  17  0.415  0.332  0.381-  66 1.87  38 2.43  45 2.46   9 2.46   6 2.50  15 2.51  49 2.51  47 2.53
                            25 2.56  58 2.57
  18  0.829  0.413  0.287-  49 2.41   7 2.44  43 2.46  56 2.46  13 2.49  14 2.49  15 2.49  20 2.51
                            22 2.52  10 2.54  39 2.54  27 2.55
  19  0.919  0.335  0.096-  48 2.49   4 2.50  40 2.51  53 2.51  13 2.52  11 2.53  26 2.54  46 2.54
                             7 2.55
  20  0.914  0.334  0.384-  67 1.86  10 2.48  43 2.48  41 2.49  12 2.50  18 2.51  49 2.53  47 2.54
                            27 2.56  54 2.56
  21  0.998  0.749  0.193-  59 2.41  50 2.48  23 2.48  22 2.50  56 2.50  32 2.50  26 2.52  14 2.52
                             2 2.53  13 2.53   1 2.54  28 2.55
  22  0.079  0.662  0.287-  29 2.44  13 2.46  43 2.46  50 2.47  21 2.50  56 2.50  18 2.52  59 2.52
                            60 2.52  54 2.53  27 2.56  52 2.59
  23  0.753  0.752  0.192-  21 2.48  63 2.49  55 2.49   1 2.50  62 2.50  32 2.51  57 2.52  56 2.52
                            14 2.53  44 2.54  51 2.57  34 2.58
  24  0.417  0.584  0.096-  46 2.49  44 2.50  51 2.51  57 2.52  30 2.52  63 2.53  16 2.54  42 2.56
                            53 2.57
  25  0.414  0.585  0.386-  66 1.89  52 2.45  64 2.47  31 2.48  47 2.50  54 2.51  58 2.54  17 2.56
                            45 2.57  55 2.59
  26  0.916  0.585  0.095-  48 2.48  32 2.48  57 2.50  53 2.51  21 2.52  14 2.52  28 2.53  19 2.54
                            13 2.55
  27  0.907  0.583  0.384-  67 1.88  33 2.42  56 2.45  49 2.45  58 2.46  18 2.55  20 2.56  22 2.56
                            29 2.58  54 2.60
  28  0.167  0.835  0.095-  32 2.48  37 2.49  53 2.50   2 2.52  50 2.53   8 2.53  26 2.53  30 2.54
                            21 2.55
  29  0.164  0.836  0.377-  60 2.41  59 2.42  22 2.44  33 2.47  31 2.50  54 2.52  38 2.52   9 2.53
                            27 2.58
  30  0.417  0.833  0.097-  51 2.49   3 2.50  53 2.52  24 2.52   8 2.53  11 2.54  28 2.54  63 2.54
                            50 2.55
  31  0.406  0.827  0.385-  68 1.85  54 2.41  25 2.48  52 2.49  29 2.50  60 2.51  64 2.52  61 2.60
                             9 2.60  12 2.63
  32  0.920  0.833  0.095-  28 2.48  26 2.48   1 2.50  21 2.50  23 2.51  57 2.53  37 2.54  63 2.54
                            40 2.57
  33  0.914  0.826  0.383-  65 1.89  27 2.42  58 2.45  29 2.47  62 2.51  56 2.51  59 2.54  64 2.62
                            41 2.64  38 2.66
  34  0.749  0.005  0.193-  61 2.46  10 2.49   4 2.50  11 2.51   7 2.51   3 2.51  62 2.52  63 2.54
                             1 2.54  51 2.55  40 2.57  23 2.58
  35  0.081  0.164  0.285-   1 2.47   4 2.47   5 2.48  47 2.49  38 2.51  10 2.51  62 2.52  59 2.54
                             6 2.55  45 2.55  43 2.57  41 2.62
  36  0.493  0.245  0.192-   6 2.45  15 2.47   5 2.48   2 2.48   3 2.49  16 2.51   8 2.51  44 2.52
                             7 2.55  39 2.56  14 2.57  48 2.57
  37  0.171  0.083  0.095-  28 2.49   8 2.49   2 2.50   5 2.50  16 2.52   1 2.52  32 2.54  46 2.57
                            40 2.58
  38  0.176  0.091  0.381-  65 1.81   9 2.41  17 2.43   6 2.44  35 2.51  29 2.52  47 2.53  59 2.58
                            41 2.59  33 2.66
  39  0.583  0.156  0.287-   3 2.43  61 2.44   7 2.46  10 2.48   9 2.51  49 2.51  60 2.52  12 2.52
                            18 2.54  36 2.56   6 2.57  15 2.59
  40  0.917  0.086  0.094-  19 2.51  11 2.51   1 2.52  63 2.53   4 2.53  46 2.55  34 2.57  32 2.57
                            37 2.58
  41  0.919  0.089  0.389-  69 1.83  65 1.87  20 2.49  47 2.51  10 2.53  38 2.59  12 2.61  35 2.62
                            64 2.63  62 2.63  33 2.64
  42  0.246  0.497  0.194-  45 2.48  52 2.49  43 2.49   4 2.49  13 2.51  46 2.51   5 2.52  53 2.54
                            51 2.55  24 2.56  44 2.58  50 2.59
  43  0.074  0.415  0.287-  13 2.43  47 2.45  18 2.46  22 2.46  20 2.48   4 2.48  42 2.49  10 2.49
                            52 2.56  35 2.57  54 2.60  45 2.65
  44  0.503  0.500  0.191-  14 2.48  15 2.48  57 2.49  55 2.50  24 2.50  45 2.51  36 2.52  16 2.52
                            23 2.54   5 2.55  51 2.55  42 2.58
  45  0.336  0.415  0.287-  47 2.44  17 2.46  42 2.48  52 2.49   5 2.50  15 2.50  44 2.51   6 2.51
                            55 2.53  35 2.55  25 2.57  43 2.65
  46  0.171  0.337  0.096-  24 2.49   5 2.50  42 2.51  16 2.53  19 2.54   4 2.55  53 2.55  40 2.55
                            37 2.57
  47  0.167  0.337  0.378-  45 2.44  43 2.45  35 2.49  25 2.50  41 2.51  17 2.53  38 2.53  20 2.54
                            54 2.55
  48  0.673  0.336  0.096-  26 2.48  19 2.49  14 2.49   7 2.49  11 2.51  57 2.53  16 2.54   8 2.56
                            36 2.57
  49  0.666  0.338  0.378-  15 2.41  18 2.41  27 2.45  12 2.48  17 2.51  39 2.51  20 2.53  58 2.54
                             9 2.55
  50  0.245  0.753  0.193-  60 2.42  22 2.47   2 2.47  21 2.48  53 2.51  13 2.52  28 2.53   3 2.54
                            30 2.55  51 2.57  52 2.59  42 2.59
  51  0.498  0.750  0.193-  61 2.42  30 2.49  52 2.51  24 2.51  55 2.52  63 2.52   3 2.54  44 2.55
                            34 2.55  42 2.55  23 2.57  50 2.57
  52  0.335  0.660  0.289-  25 2.45  45 2.49  42 2.49  31 2.49  61 2.50  51 2.51  55 2.53  54 2.53
                            60 2.55  43 2.56  50 2.59  22 2.59
  53  0.165  0.586  0.097-  13 2.50  28 2.50  50 2.51  26 2.51  19 2.51  30 2.52  42 2.54  46 2.55
                            24 2.57
  54  0.167  0.589  0.386-  67 1.83  31 2.41  25 2.51  29 2.52  22 2.53  52 2.53  47 2.55  20 2.56
                            27 2.60  43 2.60
  55  0.587  0.664  0.287-  56 2.48  23 2.49  44 2.50  62 2.50  58 2.50  64 2.51  51 2.52  52 2.53
                            15 2.53  45 2.53  61 2.55  25 2.59
  56  0.829  0.657  0.287-  14 2.45  27 2.45  18 2.46  55 2.48  15 2.48  21 2.50  22 2.50  33 2.51
                            23 2.52  58 2.53  59 2.55  62 2.59
  57  0.668  0.584  0.095-  44 2.49  26 2.50  63 2.51  23 2.52  14 2.52  16 2.52  24 2.52  32 2.53
                            48 2.53
  58  0.667  0.589  0.386-  66 1.81  33 2.45  27 2.46  64 2.48  55 2.50  56 2.53  25 2.54  49 2.54
                            17 2.57  15 2.64
  59  0.079  0.911  0.284-  21 2.41  29 2.42   2 2.46   1 2.49  62 2.52  22 2.52  60 2.54  33 2.54
                            35 2.54  56 2.55   6 2.56  38 2.58
  60  0.330  0.910  0.287-  29 2.41  50 2.42  61 2.50   3 2.50   2 2.50  31 2.51  39 2.52  22 2.52
                             9 2.53  59 2.54  52 2.55   6 2.55
  61  0.578  0.912  0.285-  51 2.42  39 2.44  34 2.46   3 2.47  60 2.50  52 2.50  64 2.52  55 2.55
                            62 2.55  10 2.55  31 2.60  12 2.73
  62  0.832  0.914  0.288-  55 2.50  23 2.50  33 2.51  10 2.52  59 2.52  35 2.52  34 2.52  64 2.53
                             1 2.54  61 2.55  56 2.59  41 2.63
  63  0.668  0.834  0.097-  23 2.49  57 2.51  51 2.52  40 2.53  24 2.53  30 2.54  34 2.54  11 2.54
                            32 2.54
  64  0.658  0.830  0.383-  69 1.84  25 2.47  58 2.48  55 2.51  31 2.52  61 2.52  62 2.53  33 2.62
                            12 2.62  41 2.63
  65  0.016  0.002  0.434-  38 1.81  41 1.87  33 1.89
  66  0.502  0.497  0.437-  58 1.81  17 1.87  25 1.89
  67  0.999  0.502  0.437-  54 1.83  20 1.86  27 1.88
  68  0.478  0.996  0.436-   9 1.80  31 1.85  12 1.88
  69  0.746  0.994  0.437-  41 1.83  64 1.84  12 1.88
 

IMPORTANT INFORMATION: All symmetrisations will be switched off!
NOSYMM: (Re-)initialisation of all symmetry stuff for point group C_1.

 
 

Automatic generation of k-mesh.
 generate k-points for:    3    3    1
Space group operators:
 irot       det(A)        alpha          n_x          n_y          n_z        tau_x        tau_y        tau_z
    1     1.000000     0.000000     1.000000     0.000000     0.000000     0.000000     0.000000     0.000000
 
 Subroutine IBZKPT returns following result:
 ===========================================
 
 Found      5 irreducible k-points:
 
 Following reciprocal coordinates:
            Coordinates               Weight
  0.000000  0.000000  0.000000      1.000000
  0.333333  0.000000  0.000000      2.000000
  0.000000  0.333333  0.000000      2.000000
  0.333333  0.333333  0.000000      2.000000
 -0.333333  0.333333  0.000000      2.000000
 
 Following cartesian coordinates:
            Coordinates               Weight
  0.000000  0.000000  0.000000      1.000000
  0.033002  0.019054  0.000000      2.000000
  0.000000  0.038108  0.000000      2.000000
  0.033002  0.057162  0.000000      2.000000
 -0.033002  0.019054  0.000000      2.000000
 
 TETIRR: Found     24 inequivalent tetrahedra from       54


--------------------------------------------------------------------------------------------------------




 Dimension of arrays:
   k-points           NKPTS =      5   k-points in BZ     NKDIM =      5   number of bands    NBANDS=    399
   number of dos      NEDOS =    301   number of ions     NIONS =     69
   non local maximal  LDIM  =      6   non local SUM 2l+1 LMDIM =     18
   total plane-waves  NPLWV = ******
   max r-space proj   IRMAX =   8292   max aug-charges    IRDMAX=  19623
   dimension x,y,z NGX =    80 NGY =   80 NGZ =  160
   dimension x,y,z NGXF=   160 NGYF=  160 NGZF=  320
   support grid    NGXF=   160 NGYF=  160 NGZF=  320
   ions per type =              33  31   5
   NGX,Y,Z   is equivalent  to a cutoff of  13.17, 13.17, 12.52 a.u.
   NGXF,Y,Z  is equivalent  to a cutoff of  26.34, 26.34, 25.03 a.u.

 SYSTEM =  SQS-NiFe                                
 POSCAR =  POSCAR                                  

 Startparameter for this run:
   NWRITE =      2    write-flag & timer
   PREC   = accura    normal or accurate (medium, high low for compatibility)
   ISTART =      1    job   : 0-new  1-cont  2-samecut
   ICHARG =      1    charge: 1-file 2-atom 10-const
   ISPIN  =      2    spin polarized calculation?
   LNONCOLLINEAR =      F non collinear calculations
   LSORBIT =      F    spin-orbit coupling
   INIWAV =      1    electr: 0-lowe 1-rand  2-diag
   LASPH  =      F    aspherical Exc in radial PAW
   METAGGA=      F    non-selfconsistent MetaGGA calc.

 Electronic Relaxation 1
   ENCUT  =  520.0 eV  38.22 Ry    6.18 a.u.  18.78 18.78 39.52*2*pi/ulx,y,z
   ENINI  =  520.0     initial cutoff
   ENAUG  =  605.4 eV  augmentation charge cutoff
   NELM   =    200;   NELMIN=  2; NELMDL=  0     # of ELM steps 
   EDIFF  = 0.1E-05   stopping-criterion for ELM
   LREAL  =      T    real-space projection
   NLSPLINE    = F    spline interpolate recip. space projectors
   LCOMPAT=      F    compatible to vasp.4.4
   GGA_COMPAT  = T    GGA compatible to vasp.4.4-vasp.4.6
   LMAXPAW     = -100 max onsite density
   LMAXMIX     =    2 max onsite mixed and CHGCAR
   VOSKOWN=      0    Vosko Wilk Nusair interpolation
   ROPT   =   -0.00025  -0.00025  -0.00025
 Ionic relaxation
   EDIFFG = -.2E-01   stopping-criterion for IOM
   NSW    =      0    number of steps for IOM
   NBLOCK =      1;   KBLOCK =      1    inner block; outer block 
   IBRION =     -1    ionic relax: 0-MD 1-quasi-New 2-CG
   NFREE  =      0    steps in history (QN), initial steepest desc. (CG)
   ISIF   =      2    stress and relaxation
   IWAVPR =     10    prediction:  0-non 1-charg 2-wave 3-comb
   ISYM   =      0    0-nonsym 1-usesym 2-fastsym
   LCORR  =      T    Harris-Foulkes like correction to forces

   POTIM  = 0.5000    time-step for ionic-motion
   TEIN   =    0.0    initial temperature
   TEBEG  =    0.0;   TEEND  =   0.0 temperature during run
   SMASS  =  -3.00    Nose mass-parameter (am)
   estimated Nose-frequenzy (Omega)   =  0.10E-29 period in steps =****** mass=  -0.233E-26a.u.
   SCALEE = 1.0000    scale energy and forces
   NPACO  =    256;   APACO  = 16.0  distance and # of slots for P.C.
   PSTRESS=    0.0 pullay stress

  Mass of Ions in am
   POMASS =  58.69 55.85 16.00
  Ionic Valenz
   ZVAL   =  10.00  8.00  6.00
  Atomic Wigner-Seitz radii
   RWIGS  =  -1.00 -1.00 -1.00
  virtual crystal weights 
   VCA    =   1.00  1.00  1.00
   NELECT =     608.0000    total number of electrons
   NUPDOWN=      -1.0000    fix difference up-down

 DOS related values:
   EMIN   =  10.00;   EMAX   =-10.00  energy-range for DOS
   EFERMI =   0.00
   ISMEAR =    -5;   SIGMA  =   0.20  broadening in eV -4-tet -1-fermi 0-gaus

 Electronic relaxation 2 (details)
   IALGO  =     68    algorithm
   LDIAG  =      T    sub-space diagonalisation (order eigenvalues)
   LSUBROT=      F    optimize rotation matrix (better conditioning)
   TURBO    =      0    0=normal 1=particle mesh
   IRESTART =      0    0=no restart 2=restart with 2 vectors
   NREBOOT  =      0    no. of reboots
   NMIN     =      0    reboot dimension
   EREF     =   0.00    reference energy to select bands
   IMIX   =      4    mixing-type and parameters
     AMIX     =   0.40;   BMIX     =  1.00
     AMIX_MAG =   1.60;   BMIX_MAG =  1.00
     AMIN     =   0.10
     WC   =   100.;   INIMIX=   1;  MIXPRE=   1;  MAXMIX= -45

 Intra band minimization:
   WEIMIN = 0.0000     energy-eigenvalue tresh-hold
   EBREAK =  0.63E-09  absolut break condition
   DEPER  =   0.30     relativ break condition  

   TIME   =   0.40     timestep for ELM

  volume/ion in A,a.u.               =      27.21       183.65
  Fermi-wavevector in a.u.,A,eV,Ry     =   1.124166  2.124366 17.194354  1.263749
  Thomas-Fermi vector in A             =   2.260836
 
 Write flags
   LWAVE        =      T    write WAVECAR
   LDOWNSAMPLE  =      F    k-point downsampling of WAVECAR
   LCHARG       =      T    write CHGCAR
   LVTOT        =      F    write LOCPOT, total local potential
   LVHAR        =      F    write LOCPOT, Hartree potential only
   LELF         =      F    write electronic localiz. function (ELF)
   LORBIT       =     11    0 simple, 1 ext, 2 COOP (PROOUT), +10 PAW based schemes


 Dipole corrections
   LMONO  =      F    monopole corrections only (constant potential shift)
   LDIPOL =      T    correct potential (dipole corrections)
   IDIPOL =      3    1-x, 2-y, 3-z, 4-all directions 
   EPSILON=  1.0000000 bulk dielectric constant

 Exchange correlation treatment:
   GGA     =    --    GGA type
   LEXCH   =     8    internal setting for exchange type
   VOSKOWN=      0    Vosko Wilk Nusair interpolation
   LHFCALC =     F    Hartree Fock is set to
   LHFONE  =     F    Hartree Fock one center treatment
   AEXX    =    0.0000 exact exchange contribution

 Linear response parameters
   LEPSILON=     F    determine dielectric tensor
   LRPA    =     F    only Hartree local field effects (RPA)
   LNABLA  =     F    use nabla operator in PAW spheres
   LVEL    =     F    velocity operator in full k-point grid
   LINTERFAST=   F  fast interpolation
   KINTER  =     0    interpolate to denser k-point grid
   CSHIFT  =0.1000    complex shift for real part using Kramers Kronig
   OMEGAMAX=  -1.0    maximum frequency
   DEG_THRESHOLD= 0.2000000E-02 threshold for treating states as degnerate
   RTIME   =   -0.100 relaxation time in fs
  (WPLASMAI=    0.000 imaginary part of plasma frequency in eV, 0.658/RTIME)
   DFIELD  = 0.0000000 0.0000000 0.0000000 field for delta impulse in time
 
 Orbital magnetization related:
   ORBITALMAG=     F  switch on orbital magnetization
   LCHIMAG   =     F  perturbation theory with respect to B field
   DQ        =  0.001000  dq finite difference perturbation B field
   LLRAUG    =     F  two centre corrections for induced B field



--------------------------------------------------------------------------------------------------------


 Static calculation
 charge density and potential will be updated during run
 spin polarized calculation
 RMM-DIIS sequential band-by-band and
  variant of blocked Davidson during initial phase
 perform sub-space diagonalisation
    before iterative eigenvector-optimisation
 modified Broyden-mixing scheme, WC =      100.0
 initial mixing is a Kerker type mixing with AMIX =  0.4000 and BMIX =      1.0000
 Hartree-type preconditioning will be used
 using additional bands           95
 real space projection scheme for non local part
 use partial core corrections
 calculate Harris-corrections to forces 
   (improved forces if not selfconsistent)
 use gradient corrections 
 use of overlap-Matrix (Vanderbilt PP)
 Fermi weights with tetrahedron method with Bloechl corrections


--------------------------------------------------------------------------------------------------------


  energy-cutoff  :      520.00
  volume of cell :     1877.75
      direct lattice vectors                 reciprocal lattice vectors
    10.100310000  0.000000000  0.000000000     0.099006862  0.057161638  0.000000000
    -5.050155000  8.747125050  0.000000000     0.000000000  0.114323277  0.000000000
     0.000000000  0.000000000 21.253800000     0.000000000  0.000000000  0.047050410

  length of vectors
    10.100310000 10.100310003 21.253800000     0.114323277  0.114323277  0.047050410


 
 old parameters found on file WAVECAR:
  energy-cutoff  :      520.00
  volume of cell :     1877.75
      direct lattice vectors                 reciprocal lattice vectors
    10.100310000  0.000000000  0.000000000     0.099006862  0.057161638  0.000000000
    -5.050155000  8.747125050  0.000000000     0.000000000  0.114323277  0.000000000
     0.000000000  0.000000000 21.253800000     0.000000000  0.000000000  0.047050410

  length of vectors

 
 k-points in units of 2pi/SCALE and weight: read from INCAR                         
   0.00000000  0.00000000  0.00000000       0.111
   0.03300229  0.01905388  0.00000000       0.222
   0.00000000  0.03810776  0.00000000       0.222
   0.03300229  0.05716164  0.00000000       0.222
  -0.03300229  0.01905388  0.00000000       0.222
 
 k-points in reciprocal lattice and weights: read from INCAR                         
   0.00000000  0.00000000  0.00000000       0.111
   0.33333333  0.00000000  0.00000000       0.222
   0.00000000  0.33333333  0.00000000       0.222
   0.33333333  0.33333333  0.00000000       0.222
  -0.33333333  0.33333333  0.00000000       0.222
 
 position of ions in fractional coordinates (direct lattice) 
   0.99904300  0.00064200  0.19052300
   0.24849100  0.99862800  0.19205500
   0.49902500  0.00192700  0.19180600
   0.99813900  0.25067400  0.19194200
   0.24921500  0.24886200  0.19118600
   0.33339200  0.16497132  0.28621340
   0.74893500  0.25278100  0.19317500
   0.41837500  0.08394000  0.09411800
   0.41273377  0.08734141  0.38115314
   0.83221805  0.16355577  0.29045286
   0.66797000  0.08472300  0.09569300
   0.66201455  0.09139931  0.38967348
   0.99908600  0.49910800  0.19304000
   0.74816900  0.49871100  0.19204600
   0.58198756  0.41188314  0.28556718
   0.41961000  0.33337100  0.09414000
   0.41505551  0.33240129  0.38137238
   0.82921900  0.41302340  0.28697849
   0.91855900  0.33501600  0.09568700
   0.91445310  0.33359486  0.38357327
   0.99765800  0.74896900  0.19256000
   0.07928285  0.66180865  0.28723878
   0.75346500  0.75172800  0.19162900
   0.41737300  0.58352400  0.09623400
   0.41363175  0.58484943  0.38550252
   0.91550800  0.58461900  0.09542900
   0.90680552  0.58286333  0.38444653
   0.16682900  0.83490800  0.09456700
   0.16384829  0.83570226  0.37697410
   0.41715300  0.83338800  0.09679300
   0.40636567  0.82650986  0.38465153
   0.91985100  0.83263700  0.09539800
   0.91447983  0.82583221  0.38305625
   0.74918200  0.00453800  0.19311300
   0.08094170  0.16411102  0.28510452
   0.49319000  0.24544000  0.19167800
   0.17139600  0.08339300  0.09535900
   0.17585819  0.09090941  0.38076299
   0.58348162  0.15637716  0.28673110
   0.91693100  0.08581500  0.09410100
   0.91921988  0.08943679  0.38901809
   0.24596400  0.49669300  0.19369900
   0.07374863  0.41519968  0.28703350
   0.50297300  0.49962100  0.19096300
   0.33572904  0.41461321  0.28676430
   0.17081400  0.33724200  0.09550500
   0.16731747  0.33726463  0.37823068
   0.67264700  0.33598100  0.09600300
   0.66619358  0.33813997  0.37826160
   0.24490500  0.75270000  0.19343600
   0.49840300  0.74988300  0.19260700
   0.33497058  0.66034122  0.28941683
   0.16470600  0.58627100  0.09733100
   0.16691607  0.58871118  0.38625287
   0.58694031  0.66442902  0.28683792
   0.82884899  0.65673542  0.28737527
   0.66762500  0.58426200  0.09519900
   0.66702766  0.58946285  0.38574615
   0.07928468  0.91136601  0.28444689
   0.33020782  0.91048410  0.28675088
   0.57818938  0.91228030  0.28469774
   0.83154579  0.91419019  0.28826403
   0.66841400  0.83351100  0.09659800
   0.65767011  0.83026859  0.38313634
   0.01550199  0.00238435  0.43411796
   0.50212762  0.49733893  0.43734169
   0.99884589  0.50201122  0.43726849
   0.47799610  0.99641158  0.43580415
   0.74628839  0.99389909  0.43718860
 
 position of ions in cartesian coordinates  (Angst):
  10.08740180  0.00561565  4.04933774
  -2.53339006  8.73512399  4.08189856
   5.03057555  0.01685571  4.07660636
   8.81557077  2.19267682  4.07949688
   1.26035708  2.17682703  4.06342901
   2.53423182  1.44302476  6.08312243
   6.28789244  2.21110702  4.10570281
   3.80180719  0.73423368  2.00036515
   3.72765141  0.76398619  8.10095258
   7.57967831  1.43064279  6.17322700
   6.31883979  0.74108268  2.03383988
   6.22497147  0.79948122  8.28204229
   7.57050555  4.36576009  4.10283355
   5.03817098  4.36228748  4.08170727
   3.79818110  3.60279336  6.06938774
   2.55461586  2.91603783  2.00083273
   2.51351133  2.90755565  8.10561221
   6.28953671  3.61276736  6.09938340
   7.58584793  2.93042685  2.03371236
   7.55155408  2.91799594  8.15238948
   6.29424553  6.55132550  4.09263173
  -2.54145493  5.78892301  6.10491567
   3.81388716  6.57545882  4.07284444
   1.26871004  5.10415740  2.04533819
   1.22422861  5.11575110  8.19339343
   6.29449804  5.11373550  2.02822888
   6.21546668  5.09837843  8.17094958
  -2.53139019  7.30304468  2.00990810
  -2.56550741  7.30999218  8.01213208
   0.00463604  7.28974905  2.05721906
  -0.06958366  7.22958508  8.17530679
   5.08583435  7.28317996  2.02757001
   5.06594916  7.22365759  8.14140083
   7.54405284  0.03969445  4.10438508
  -0.01124987  1.43549960  6.05955454
   3.74186185  2.14689437  4.07388588
   1.31000516  0.72944900  2.02674111
   1.31711564  0.79519596  8.09266041
   5.10361636  1.36785059  6.09412554
   8.82790830  0.75063454  2.00000383
   8.83273609  0.78231474  8.26811270
  -0.02406399  4.34463578  4.11683981
  -1.35193870  3.63180351  6.10055256
   2.55701973  4.37024736  4.05868941
   1.29710638  3.62667362  6.09483107
   0.02214998  2.94989795  2.02984417
  -0.01328031  2.95009593  8.03883925
   5.09718709  2.93886782  2.04042856
   5.02110247  2.95775257  8.03949635
  -1.32763525  6.58396103  4.11125006
   1.24699942  6.55932037  4.09363066
   0.04848125  5.77608719  6.15120733
  -1.29717776  5.12818575  2.06865361
  -1.28717868  5.14953030  8.20934133
   2.57280959  5.81184374  6.09639586
   5.05501614  5.74454682  6.10781643
   3.79260580  5.11061278  2.02334051
   3.76030743  5.15610522  8.19857151
  -3.80173981  7.97183245  6.04557737
  -1.26288447  7.96411826  6.09454576
   1.23273501  7.97982989  6.05090877
   3.78206809  7.99653593  6.12670597
   2.54182886  7.29082495  2.05307457
   2.44968694  7.26246314  8.14310324
   0.14453355  0.02085625  9.22665636
   2.56000592  4.35028578  9.29517272
   7.55341868  4.39115493  9.29361693
  -0.20412414  8.71573667  9.26249427
   2.51839962  8.69375962  9.29191904
 


--------------------------------------------------------------------------------------------------------


 k-point  1 :   0.0000 0.0000 0.0000  plane waves:   50641
 k-point  2 :   0.3333 0.0000 0.0000  plane waves:   50572
 k-point  3 :   0.0000 0.3333 0.0000  plane waves:   50572
 k-point  4 :   0.3333 0.3333 0.0000  plane waves:   50583
 k-point  5 :  -0.3333 0.3333 0.0000  plane waves:   50572

 maximum and minimum number of plane-waves per node :      2130     2087

 maximum number of plane-waves:     50641
 maximum index in each direction: 
   IXMAX=   19   IYMAX=   18   IZMAX=   39
   IXMIN=  -19   IYMIN=  -19   IZMIN=  -39


 real space projection operators:
  total allocation   :      66976.55 KBytes
  max/ min on nodes  :       3377.22       2432.48


 parallel 3D FFT for wavefunctions:
    minimum data exchange during FFTs selected (reduces bandwidth)
 parallel 3D FFT for charge:
    minimum data exchange during FFTs selected (reduces bandwidth)


 total amount of memory used by VASP MPI-rank0   114452. kBytes
=======================================================================

   base      :      30000. kBytes
   nonlr-proj:      13789. kBytes
   fftplans  :       6403. kBytes
   grid      :      17692. kBytes
   one-center:         93. kBytes
   wavefun   :      46475. kBytes
 
     INWAV:  cpu time   11.2547: real time   12.0121
 Broyden mixing: mesh for mixing (old mesh)
   NGX = 37   NGY = 37   NGZ = 79
  (NGX  =160   NGY  =160   NGZ  =320)
  gives a total of 108151 points

 initial charge density was supplied:
 number of electron     608.0000027 magnetization      68.0402908
 keeping initial charge density in first step


--------------------------------------------------------------------------------------------------------


 Maximum index for non-local projection operator          766
 Maximum index for augmentation-charges         1137 (set IRDMAX)


--------------------------------------------------------------------------------------------------------


 First call to EWALD:  gamma=   0.144
 Maximum number of real-space cells 4x 4x 2
 Maximum number of reciprocal cells 2x 2x 4

    FEWALD:  cpu time    0.0034: real time    0.0034


--------------------------------------- Iteration      1(   1)  ---------------------------------------


    POTLOK:  cpu time    0.4304: real time    0.4418
    SETDIJ:  cpu time    0.0375: real time    0.0541
     EDDAV:  cpu time   40.3416: real time   40.4530
 BZINTS: Fermi energy: -0.075667;608.000000 electrons
         Band energy:***********;  BLOECHL correction: -0.009812
       DOS:  cpu time    0.0494: real time    0.0494
    CHARGE:  cpu time    1.0201: real time    1.0224
    MIXING:  cpu time    0.0078: real time    0.0079
    --------------------------------------------
      LOOP:  cpu time   41.8870: real time   42.0286

 eigenvalue-minimisations  :  8418
 total energy-change (2. order) :-0.4491475E+03  (-0.9035951E-02)
 number of electron     608.0000027 magnetization      67.9817064
 augmentation part      335.4541119 magnetization      56.6019397

 DIPCOR: dipole corrections for dipol
 direction  3 min pos   247,
 dipolmoment           0.000000      0.000000      0.355908 electrons x Angstroem
 Tr[quadrupol]    -10392.634977

 energy correction for charged system         0.000000 eV
 dipol+quadrupol energy correction           -0.006104 eV
 added-field ion interaction          9.023119 eV  (added to PSCEN)


 Broyden mixing:
  rms(total) = 0.10636E+00    rms(broyden)= 0.10618E+00
  rms(prec ) = 0.11065E+00
  weight for this iteration     100.00

 Free energy of the ion-electron system (eV)
  ---------------------------------------------------
  alpha Z        PSCENC =      1458.61536158
  Ewald energy   TEWEN  =    197569.37391233
  -Hartree energ DENC   =   -252663.19518846
  -exchange      EXHF   =         0.00000000
  -V(xc)+E(xc)   XCENC  =      1282.66562936
  PAW double counting   =     61624.14004989   -64177.37781132
  entropy T*S    EENTRO =         0.00000000
  eigenvalues    EBANDS =     -1691.99284386
  atomic energy  EATOM  =     56148.62337470
  Solvation  Ediel_sol  =         0.00000000
  ---------------------------------------------------
  free energy    TOTEN  =      -449.14751578 eV

  energy without entropy =     -449.14751578  energy(sigma->0) =     -449.14751578


--------------------------------------------------------------------------------------------------------




--------------------------------------- Iteration      1(   2)  ---------------------------------------


    POTLOK:  cpu time    0.4244: real time    0.4342
    SETDIJ:  cpu time    0.0250: real time    0.0250
    EDDIAG:  cpu time    5.5535: real time    5.5546
  RMM-DIIS:  cpu time   20.2751: real time   20.2814
    ORTHCH:  cpu time    1.5431: real time    1.5433
 BZINTS: Fermi energy: -0.068253;608.000000 electrons
         Band energy:***********;  BLOECHL correction: -0.008593
       DOS:  cpu time    0.0497: real time    0.0497
    CHARGE:  cpu time    1.0225: real time    1.0227
    MIXING:  cpu time    0.0067: real time    0.0245
    --------------------------------------------
      LOOP:  cpu time   28.9001: real time   28.9354

 eigenvalue-minimisations  :  8030
 total energy-change (2. order) :-0.1554216E+00  (-0.1647382E-01)
 number of electron     608.0000028 magnetization      67.9794829
 augmentation part      335.5733594 magnetization      56.2997801

 DIPCOR: dipole corrections for dipol
 direction  3 min pos   245,
 dipolmoment           0.000000      0.000000      0.361118 electrons x Angstroem
 Tr[quadrupol]    -10392.559907

 energy correction for charged system         0.000000 eV
 dipol+quadrupol energy correction           -0.006284 eV
 added-field ion interaction          6.344486 eV  (added to PSCEN)


 Broyden mixing:
  rms(total) = 0.55441E+00    rms(broyden)= 0.55438E+00
  rms(prec ) = 0.62626E+00
  weight for this iteration     100.00

 eigenvalues of (default mixing * dielectric matrix)
  average eigenvalue GAMMA=   0.1472
  0.1472

 Free energy of the ion-electron system (eV)
  ---------------------------------------------------
  alpha Z        PSCENC =      1455.93654890
  Ewald energy   TEWEN  =    197569.37391233
  -Hartree energ DENC   =   -252661.97504443
  -exchange      EXHF   =         0.00000000
  -V(xc)+E(xc)   XCENC  =      1282.50402533
  PAW double counting   =     61620.58413991   -64173.32461284
  entropy T*S    EENTRO =         0.00000000
  eigenvalues    EBANDS =     -1691.02528130
  atomic energy  EATOM  =     56148.62337470
  Solvation  Ediel_sol  =         0.00000000
  ---------------------------------------------------
  free energy    TOTEN  =      -449.30293740 eV

  energy without entropy =     -449.30293740  energy(sigma->0) =     -449.30293740


--------------------------------------------------------------------------------------------------------




--------------------------------------- Iteration      1(   3)  ---------------------------------------


    POTLOK:  cpu time    0.4235: real time    0.4343
    SETDIJ:  cpu time    0.0251: real time    0.0251
    EDDIAG:  cpu time    5.5555: real time    5.5570
  RMM-DIIS:  cpu time   20.2419: real time   20.2485
    ORTHCH:  cpu time    1.5376: real time    1.5378
 BZINTS: Fermi energy: -0.069867;608.000000 electrons
         Band energy:***********;  BLOECHL correction: -0.010208
       DOS:  cpu time    0.0496: real time    0.0496
    CHARGE:  cpu time    1.0220: real time    1.0223
    MIXING:  cpu time    0.0067: real time    0.0067
    --------------------------------------------
      LOOP:  cpu time   28.8619: real time   28.8811

 eigenvalue-minimisations  :  8012
 total energy-change (2. order) : 0.6399988E-01  (-0.7516096E-02)
 number of electron     608.0000027 magnetization      67.9777646
 augmentation part      335.5238666 magnetization      56.3520791

 DIPCOR: dipole corrections for dipol
 direction  3 min pos   243,
 dipolmoment           0.000000      0.000000      0.367321 electrons x Angstroem
 Tr[quadrupol]    -10392.466176

 energy correction for charged system         0.000000 eV
 dipol+quadrupol energy correction           -0.006501 eV
 added-field ion interaction          3.594468 eV  (added to PSCEN)


 Broyden mixing:
  rms(total) = 0.39278E+00    rms(broyden)= 0.39275E+00
  rms(prec ) = 0.46112E+00
  weight for this iteration     100.00

 eigenvalues of (default mixing * dielectric matrix)
  average eigenvalue GAMMA=   0.1800
  0.2921  0.0679

 Free energy of the ion-electron system (eV)
  ---------------------------------------------------
  alpha Z        PSCENC =      1453.18631311
  Ewald energy   TEWEN  =    197569.37391233
  -Hartree energ DENC   =   -252663.82496267
  -exchange      EXHF   =         0.00000000
  -V(xc)+E(xc)   XCENC  =      1282.56977896
  PAW double counting   =     61622.94155463   -64176.03779601
  entropy T*S    EENTRO =         0.00000000
  eigenvalues    EBANDS =     -1686.07111257
  atomic energy  EATOM  =     56148.62337470
  Solvation  Ediel_sol  =         0.00000000
  ---------------------------------------------------
  free energy    TOTEN  =      -449.23893752 eV

  energy without entropy =     -449.23893752  energy(sigma->0) =     -449.23893752


--------------------------------------------------------------------------------------------------------




--------------------------------------- Iteration      1(   4)  ---------------------------------------


    POTLOK:  cpu time    0.4220: real time    0.4343
    SETDIJ:  cpu time    0.0250: real time    0.0250
    EDDIAG:  cpu time    5.6063: real time    5.6076
  RMM-DIIS:  cpu time   20.7021: real time   20.7093
    ORTHCH:  cpu time    1.5369: real time    1.5415
 BZINTS: Fermi energy: -0.055813;608.000000 electrons
         Band energy:***********;  BLOECHL correction: -0.009701
       DOS:  cpu time    0.0439: real time    0.0463
    CHARGE:  cpu time    1.0140: real time    1.0142
    MIXING:  cpu time    0.0068: real time    0.0083
    --------------------------------------------
      LOOP:  cpu time   29.3572: real time   29.3865

 eigenvalue-minimisations  :  8229
 total energy-change (2. order) : 0.1999095E-01  (-0.3056677E-02)
 number of electron     608.0000027 magnetization      67.9607329
 augmentation part      335.4169492 magnetization      56.5565615

 DIPCOR: dipole corrections for dipol
 direction  3 min pos   240,
 dipolmoment           0.000000      0.000000      0.337522 electrons x Angstroem
 Tr[quadrupol]    -10392.296937

 energy correction for charged system         0.000000 eV
 dipol+quadrupol energy correction           -0.005489 eV
 added-field ion interaction         -0.637728 eV  (added to PSCEN)


 Broyden mixing:
  rms(total) = 0.25495E+00    rms(broyden)= 0.25492E+00
  rms(prec ) = 0.32028E+00
  weight for this iteration     100.00

 eigenvalues of (default mixing * dielectric matrix)
  average eigenvalue GAMMA=   0.2300
  0.5366  0.1058  0.0477

 Free energy of the ion-electron system (eV)
  ---------------------------------------------------
  alpha Z        PSCENC =      1448.95512921
  Ewald energy   TEWEN  =    197569.37391233
  -Hartree energ DENC   =   -252663.51202025
  -exchange      EXHF   =         0.00000000
  -V(xc)+E(xc)   XCENC  =      1282.63610356
  PAW double counting   =     61623.57329208   -64176.85924103
  entropy T*S    EENTRO =         0.00000000
  eigenvalues    EBANDS =     -1682.00949718
  atomic energy  EATOM  =     56148.62337470
  Solvation  Ediel_sol  =         0.00000000
  ---------------------------------------------------
  free energy    TOTEN  =      -449.21894656 eV

  energy without entropy =     -449.21894656  energy(sigma->0) =     -449.21894656


--------------------------------------------------------------------------------------------------------




--------------------------------------- Iteration      1(   5)  ---------------------------------------


    POTLOK:  cpu time    0.4226: real time    0.4342
    SETDIJ:  cpu time    0.0249: real time    0.0249
    EDDIAG:  cpu time    5.5667: real time    5.5678
  RMM-DIIS:  cpu time   20.9993: real time   21.0058
    ORTHCH:  cpu time    1.5391: real time    1.5394
 BZINTS: Fermi energy: -0.057163;608.000000 electrons
         Band energy:***********;  BLOECHL correction: -0.009643
       DOS:  cpu time    0.0507: real time    0.0507
    CHARGE:  cpu time    1.0163: real time    1.0164
    MIXING:  cpu time    0.0067: real time    0.0068
    --------------------------------------------
      LOOP:  cpu time   29.6264: real time   29.6460

 eigenvalue-minimisations  :  8415
 total energy-change (2. order) :-0.1753205E-01  (-0.1701642E-02)
 number of electron     608.0000028 magnetization      67.9440445
 augmentation part      335.4221020 magnetization      56.5145818

 DIPCOR: dipole corrections for dipol
 direction  3 min pos   240,
 dipolmoment           0.000000      0.000000      0.387982 electrons x Angstroem
 Tr[quadrupol]    -10392.325779

 energy correction for charged system         0.000000 eV
 dipol+quadrupol energy correction           -0.007253 eV
 added-field ion interaction         -0.733071 eV  (added to PSCEN)


 Broyden mixing:
  rms(total) = 0.28275E+00    rms(broyden)= 0.28272E+00
  rms(prec ) = 0.37604E+00
  weight for this iteration     100.00

 eigenvalues of (default mixing * dielectric matrix)
  average eigenvalue GAMMA=   0.2089
  0.6030  0.1192  0.0672  0.0460

 Free energy of the ion-electron system (eV)
  ---------------------------------------------------
  alpha Z        PSCENC =      1448.85802276
  Ewald energy   TEWEN  =    197569.37391233
  -Hartree energ DENC   =   -252664.55137046
  -exchange      EXHF   =         0.00000000
  -V(xc)+E(xc)   XCENC  =      1282.62358785
  PAW double counting   =     61623.47274327   -64176.73342522
  entropy T*S    EENTRO =         0.00000000
  eigenvalues    EBANDS =     -1680.90332384
  atomic energy  EATOM  =     56148.62337470
  Solvation  Ediel_sol  =         0.00000000
  ---------------------------------------------------
  free energy    TOTEN  =      -449.23647862 eV

  energy without entropy =     -449.23647862  energy(sigma->0) =     -449.23647862


--------------------------------------------------------------------------------------------------------




--------------------------------------- Iteration      1(   6)  ---------------------------------------


    POTLOK:  cpu time    0.4222: real time    0.4320
    SETDIJ:  cpu time    0.0249: real time    0.0249
    EDDIAG:  cpu time    5.5658: real time    5.5669
  RMM-DIIS:  cpu time   20.4013: real time   20.4088
    ORTHCH:  cpu time    1.5417: real time    1.5420
 BZINTS: Fermi energy: -0.056840;608.000000 electrons
         Band energy:***********;  BLOECHL correction: -0.010051
       DOS:  cpu time    0.0497: real time    0.0497
    CHARGE:  cpu time    1.0154: real time    1.0155
    MIXING:  cpu time    0.0069: real time    0.0070
    --------------------------------------------
      LOOP:  cpu time   29.0280: real time   29.0468

 eigenvalue-minimisations  :  8133
 total energy-change (2. order) : 0.3418958E-01  (-0.8879789E-03)
 number of electron     608.0000027 magnetization      67.9342436
 augmentation part      335.4513706 magnetization      56.4368020

 DIPCOR: dipole corrections for dipol
 direction  3 min pos   240,
 dipolmoment           0.000000      0.000000      0.350120 electrons x Angstroem
 Tr[quadrupol]    -10392.318323

 energy correction for charged system         0.000000 eV
 dipol+quadrupol energy correction           -0.005907 eV
 added-field ion interaction         -0.661532 eV  (added to PSCEN)


 Broyden mixing:
  rms(total) = 0.86752E-01    rms(broyden)= 0.86717E-01
  rms(prec ) = 0.10121E+00
  weight for this iteration     100.00

 eigenvalues of (default mixing * dielectric matrix)
  average eigenvalue GAMMA=   0.2080
  0.5935  0.2096  0.1291  0.0638  0.0440

 Free energy of the ion-electron system (eV)
  ---------------------------------------------------
  alpha Z        PSCENC =      1448.93090801
  Ewald energy   TEWEN  =    197569.37391233
  -Hartree energ DENC   =   -252663.92346791
  -exchange      EXHF   =         0.00000000
  -V(xc)+E(xc)   XCENC  =      1282.56506980
  PAW double counting   =     61622.44627719   -64175.62046026
  entropy T*S    EENTRO =         0.00000000
  eigenvalues    EBANDS =     -1681.59790289
  atomic energy  EATOM  =     56148.62337470
  Solvation  Ediel_sol  =         0.00000000
  ---------------------------------------------------
  free energy    TOTEN  =      -449.20228904 eV

  energy without entropy =     -449.20228904  energy(sigma->0) =     -449.20228904


--------------------------------------------------------------------------------------------------------




--------------------------------------- Iteration      1(   7)  ---------------------------------------


    POTLOK:  cpu time    0.4234: real time    0.4347
    SETDIJ:  cpu time    0.0250: real time    0.0250
    EDDIAG:  cpu time    5.5510: real time    5.5521
  RMM-DIIS:  cpu time   20.2616: real time   20.2715
    ORTHCH:  cpu time    1.5377: real time    1.5380
 BZINTS: Fermi energy: -0.057204;608.000000 electrons
         Band energy:***********;  BLOECHL correction: -0.009890
       DOS:  cpu time    0.0508: real time    0.0508
    CHARGE:  cpu time    1.0167: real time    1.0169
    MIXING:  cpu time    0.0077: real time    0.0077
    --------------------------------------------
      LOOP:  cpu time   28.8739: real time   28.8966

 eigenvalue-minimisations  :  8082
 total energy-change (2. order) : 0.2330884E-02  (-0.3949570E-03)
 number of electron     608.0000027 magnetization      67.9013314
 augmentation part      335.4577137 magnetization      56.4013803

 DIPCOR: dipole corrections for dipol
 direction  3 min pos   240,
 dipolmoment           0.000000      0.000000      0.356283 electrons x Angstroem
 Tr[quadrupol]    -10392.315642

 energy correction for charged system         0.000000 eV
 dipol+quadrupol energy correction           -0.006117 eV
 added-field ion interaction         -0.673176 eV  (added to PSCEN)


 Broyden mixing:
  rms(total) = 0.55112E-01    rms(broyden)= 0.55107E-01
  rms(prec ) = 0.60790E-01
  weight for this iteration     100.00

 eigenvalues of (default mixing * dielectric matrix)
  average eigenvalue GAMMA=   0.3106
  0.7590  0.7590  0.1391  0.1012  0.0612  0.0442

 Free energy of the ion-electron system (eV)
  ---------------------------------------------------
  alpha Z        PSCENC =      1448.91905461
  Ewald energy   TEWEN  =    197569.37391233
  -Hartree energ DENC   =   -252663.64883301
  -exchange      EXHF   =         0.00000000
  -V(xc)+E(xc)   XCENC  =      1282.54816076
  PAW double counting   =     61621.99555776   -64175.10970322
  entropy T*S    EENTRO =         0.00000000
  eigenvalues    EBANDS =     -1681.90148208
  atomic energy  EATOM  =     56148.62337470
  Solvation  Ediel_sol  =         0.00000000
  ---------------------------------------------------
  free energy    TOTEN  =      -449.19995815 eV

  energy without entropy =     -449.19995815  energy(sigma->0) =     -449.19995815


--------------------------------------------------------------------------------------------------------




--------------------------------------- Iteration      1(   8)  ---------------------------------------


    POTLOK:  cpu time    0.4251: real time    0.4364
    SETDIJ:  cpu time    0.0250: real time    0.0249
    EDDIAG:  cpu time    5.5450: real time    5.5461
  RMM-DIIS:  cpu time   20.6618: real time   20.6668
    ORTHCH:  cpu time    1.5405: real time    1.5407
 BZINTS: Fermi energy: -0.057114;608.000000 electrons
         Band energy:***********;  BLOECHL correction: -0.009908
       DOS:  cpu time    0.0508: real time    0.0507
    CHARGE:  cpu time    1.0156: real time    1.0158
    MIXING:  cpu time    0.0075: real time    0.0074
    --------------------------------------------
      LOOP:  cpu time   29.2712: real time   29.2890

 eigenvalue-minimisations  :  8259
 total energy-change (2. order) :-0.6818147E-04  (-0.2248246E-03)
 number of electron     608.0000027 magnetization      67.8770409
 augmentation part      335.4649101 magnetization      56.3957201

 DIPCOR: dipole corrections for dipol
 direction  3 min pos   240,
 dipolmoment           0.000000      0.000000      0.355808 electrons x Angstroem
 Tr[quadrupol]    -10392.322848

 energy correction for charged system         0.000000 eV
 dipol+quadrupol energy correction           -0.006100 eV
 added-field ion interaction         -0.672279 eV  (added to PSCEN)


 Broyden mixing:
  rms(total) = 0.63048E-01    rms(broyden)= 0.63046E-01
  rms(prec ) = 0.69642E-01
  weight for this iteration     100.00

 eigenvalues of (default mixing * dielectric matrix)
  average eigenvalue GAMMA=   0.3225
  0.8695  0.8695  0.1796  0.1309  0.1025  0.0442  0.0615

 Free energy of the ion-electron system (eV)
  ---------------------------------------------------
  alpha Z        PSCENC =      1448.91996742
  Ewald energy   TEWEN  =    197569.37391233
  -Hartree energ DENC   =   -252663.77621030
  -exchange      EXHF   =         0.00000000
  -V(xc)+E(xc)   XCENC  =      1282.52710462
  PAW double counting   =     61621.12329176   -64174.17233710
  entropy T*S    EENTRO =         0.00000000
  eigenvalues    EBANDS =     -1681.81912976
  atomic energy  EATOM  =     56148.62337470
  Solvation  Ediel_sol  =         0.00000000
  ---------------------------------------------------
  free energy    TOTEN  =      -449.20002634 eV

  energy without entropy =     -449.20002634  energy(sigma->0) =     -449.20002634


--------------------------------------------------------------------------------------------------------




--------------------------------------- Iteration      1(   9)  ---------------------------------------


    POTLOK:  cpu time    0.4258: real time    0.4366
    SETDIJ:  cpu time    0.0249: real time    0.0249
    EDDIAG:  cpu time    5.5462: real time    5.5471
  RMM-DIIS:  cpu time   20.4006: real time   20.4077
    ORTHCH:  cpu time    1.5386: real time    1.5389
 BZINTS: Fermi energy: -0.057283;608.000000 electrons
         Band energy:***********;  BLOECHL correction: -0.009860
       DOS:  cpu time    0.0485: real time    0.0485
    CHARGE:  cpu time    1.0179: real time    1.0181
    MIXING:  cpu time    0.0076: real time    0.0076
    --------------------------------------------
      LOOP:  cpu time   29.0101: real time   29.0294

 eigenvalue-minimisations  :  8116
 total energy-change (2. order) : 0.1939388E-02  (-0.1684226E-03)
 number of electron     608.0000027 magnetization      67.8456811
 augmentation part      335.4659964 magnetization      56.3568752

 DIPCOR: dipole corrections for dipol
 direction  3 min pos   240,
 dipolmoment           0.000000      0.000000      0.356371 electrons x Angstroem
 Tr[quadrupol]    -10392.317177

 energy correction for charged system         0.000000 eV
 dipol+quadrupol energy correction           -0.006120 eV
 added-field ion interaction         -0.673342 eV  (added to PSCEN)


 Broyden mixing:
  rms(total) = 0.36250E-01    rms(broyden)= 0.36246E-01
  rms(prec ) = 0.39616E-01
  weight for this iteration     100.00

 eigenvalues of (default mixing * dielectric matrix)
  average eigenvalue GAMMA=   0.3591
  0.9342  0.9342  0.5310  0.0442  0.0614  0.1464  0.0984  0.1230

 Free energy of the ion-electron system (eV)
  ---------------------------------------------------
  alpha Z        PSCENC =      1448.91888518
  Ewald energy   TEWEN  =    197569.37391233
  -Hartree energ DENC   =   -252663.60093753
  -exchange      EXHF   =         0.00000000
  -V(xc)+E(xc)   XCENC  =      1282.51963828
  PAW double counting   =     61620.63474921   -64173.66539224
  entropy T*S    EENTRO =         0.00000000
  eigenvalues    EBANDS =     -1682.00231687
  atomic energy  EATOM  =     56148.62337470
  Solvation  Ediel_sol  =         0.00000000
  ---------------------------------------------------
  free energy    TOTEN  =      -449.19808695 eV

  energy without entropy =     -449.19808695  energy(sigma->0) =     -449.19808695


--------------------------------------------------------------------------------------------------------




--------------------------------------- Iteration      1(  10)  ---------------------------------------


    POTLOK:  cpu time    0.4230: real time    0.4348
    SETDIJ:  cpu time    0.0250: real time    0.0250
    EDDIAG:  cpu time    5.5474: real time    5.5485
  RMM-DIIS:  cpu time   20.8207: real time   20.8286
    ORTHCH:  cpu time    1.9750: real time    2.3013
 BZINTS: Fermi energy: -0.056472;608.000000 electrons
         Band energy:***********;  BLOECHL correction: -0.009821
       DOS:  cpu time    0.0497: real time    0.0496
    CHARGE:  cpu time    1.0147: real time    1.0169
    MIXING:  cpu time    0.0079: real time    0.0079
    --------------------------------------------
      LOOP:  cpu time   29.8634: real time   30.2126

 eigenvalue-minimisations  :  8318
 total energy-change (2. order) :-0.3985845E-03  (-0.1226756E-03)
 number of electron     608.0000027 magnetization      67.8181191
 augmentation part      335.4553604 magnetization      56.3354594

 DIPCOR: dipole corrections for dipol
 direction  3 min pos   240,
 dipolmoment           0.000000      0.000000      0.354280 electrons x Angstroem
 Tr[quadrupol]    -10392.326259

 energy correction for charged system         0.000000 eV
 dipol+quadrupol energy correction           -0.006048 eV
 added-field ion interaction         -0.669391 eV  (added to PSCEN)


 Broyden mixing:
  rms(total) = 0.57322E-01    rms(broyden)= 0.57320E-01
  rms(prec ) = 0.63513E-01
  weight for this iteration     100.00

 eigenvalues of (default mixing * dielectric matrix)
  average eigenvalue GAMMA=   0.3476
  0.9802  0.9802  0.6037  0.1468  0.0442  0.1257  0.0614  0.0931  0.0931

 Free energy of the ion-electron system (eV)
  ---------------------------------------------------
  alpha Z        PSCENC =      1448.92290770
  Ewald energy   TEWEN  =    197569.37391233
  -Hartree energ DENC   =   -252664.02964814
  -exchange      EXHF   =         0.00000000
  -V(xc)+E(xc)   XCENC  =      1282.51742851
  PAW double counting   =     61620.27537053   -64173.33583141
  entropy T*S    EENTRO =         0.00000000
  eigenvalues    EBANDS =     -1681.54599974
  atomic energy  EATOM  =     56148.62337470
  Solvation  Ediel_sol  =         0.00000000
  ---------------------------------------------------
  free energy    TOTEN  =      -449.19848553 eV

  energy without entropy =     -449.19848553  energy(sigma->0) =     -449.19848553


--------------------------------------------------------------------------------------------------------




--------------------------------------- Iteration      1(  11)  ---------------------------------------


    POTLOK:  cpu time    0.4223: real time    0.4365
    SETDIJ:  cpu time    0.0249: real time    0.0249
    EDDIAG:  cpu time    5.5491: real time    5.5507
  RMM-DIIS:  cpu time   20.4175: real time   20.4563
    ORTHCH:  cpu time    1.5328: real time    1.5358
 BZINTS: Fermi energy: -0.056185;608.000000 electrons
         Band energy:***********;  BLOECHL correction: -0.009748
       DOS:  cpu time    0.0493: real time    0.0497
    CHARGE:  cpu time    1.0165: real time    1.0167
    MIXING:  cpu time    0.0080: real time    0.0080
    --------------------------------------------
      LOOP:  cpu time   29.0206: real time   29.0786

 eigenvalue-minimisations  :  8148
 total energy-change (2. order) : 0.1045248E-02  (-0.5682320E-04)
 number of electron     608.0000027 magnetization      67.8192708
 augmentation part      335.4598612 magnetization      56.3513516

 DIPCOR: dipole corrections for dipol
 direction  3 min pos   240,
 dipolmoment           0.000000      0.000000      0.354532 electrons x Angstroem
 Tr[quadrupol]    -10392.325219

 energy correction for charged system         0.000000 eV
 dipol+quadrupol energy correction           -0.006057 eV
 added-field ion interaction         -0.669869 eV  (added to PSCEN)


 Broyden mixing:
  rms(total) = 0.39201E-01    rms(broyden)= 0.39200E-01
  rms(prec ) = 0.42016E-01
  weight for this iteration     100.00

 eigenvalues of (default mixing * dielectric matrix)
  average eigenvalue GAMMA=   0.3550
  1.0158  1.0158  0.6340  0.2976  0.0442  0.0614  0.1510  0.1278  0.0999  0.1026

 Free energy of the ion-electron system (eV)
  ---------------------------------------------------
  alpha Z        PSCENC =      1448.92242158
  Ewald energy   TEWEN  =    197569.37391233
  -Hartree energ DENC   =   -252663.97166104
  -exchange      EXHF   =         0.00000000
  -V(xc)+E(xc)   XCENC  =      1282.50654798
  PAW double counting   =     61619.76523337   -64172.81075934
  entropy T*S    EENTRO =         0.00000000
  eigenvalues    EBANDS =     -1681.60650986
  atomic energy  EATOM  =     56148.62337470
  Solvation  Ediel_sol  =         0.00000000
  ---------------------------------------------------
  free energy    TOTEN  =      -449.19744028 eV

  energy without entropy =     -449.19744028  energy(sigma->0) =     -449.19744028


--------------------------------------------------------------------------------------------------------




--------------------------------------- Iteration      1(  12)  ---------------------------------------


    POTLOK:  cpu time    0.4258: real time    0.4370
    SETDIJ:  cpu time    0.0250: real time    0.0250
    EDDIAG:  cpu time    5.5842: real time    5.5853
  RMM-DIIS:  cpu time   21.7731: real time   21.7789
    ORTHCH:  cpu time    1.5419: real time    1.5421
 BZINTS: Fermi energy: -0.051646;608.000000 electrons
         Band energy:***********;  BLOECHL correction: -0.009749
       DOS:  cpu time    0.0509: real time    0.0509
    CHARGE:  cpu time    1.0198: real time    1.0199
    MIXING:  cpu time    0.0085: real time    0.0085
    --------------------------------------------
      LOOP:  cpu time   30.4291: real time   30.4475

 eigenvalue-minimisations  :  8701
 total energy-change (2. order) :-0.3671231E-04  (-0.3952416E-05)
 number of electron     608.0000027 magnetization      67.8297687
 augmentation part      335.4601911 magnetization      56.3619755

 DIPCOR: dipole corrections for dipol
 direction  3 min pos   238,
 dipolmoment           0.000000      0.000000      0.354631 electrons x Angstroem
 Tr[quadrupol]    -10392.231111

 energy correction for charged system         0.000000 eV
 dipol+quadrupol energy correction           -0.006060 eV
 added-field ion interaction         -3.430281 eV  (added to PSCEN)


 Broyden mixing:
  rms(total) = 0.40249E-01    rms(broyden)= 0.40249E-01
  rms(prec ) = 0.43185E-01
  weight for this iteration     100.00

 eigenvalues of (default mixing * dielectric matrix)
  average eigenvalue GAMMA=   0.4006
  1.1026  1.1026  0.8135  0.6679  0.0442  0.0614  0.1458  0.1458  0.1208  0.1047
  0.0971

 Free energy of the ion-electron system (eV)
  ---------------------------------------------------
  alpha Z        PSCENC =      1446.16200527
  Ewald energy   TEWEN  =    197569.37391233
  -Hartree energ DENC   =   -252663.96382987
  -exchange      EXHF   =         0.00000000
  -V(xc)+E(xc)   XCENC  =      1282.50608980
  PAW double counting   =     61619.77128975   -64172.81621430
  entropy T*S    EENTRO =         0.00000000
  eigenvalues    EBANDS =     -1678.85410467
  atomic energy  EATOM  =     56148.62337470
  Solvation  Ediel_sol  =         0.00000000
  ---------------------------------------------------
  free energy    TOTEN  =      -449.19747700 eV

  energy without entropy =     -449.19747700  energy(sigma->0) =     -449.19747700


--------------------------------------------------------------------------------------------------------




--------------------------------------- Iteration      1(  13)  ---------------------------------------


    POTLOK:  cpu time    0.4241: real time    0.4337
    SETDIJ:  cpu time    0.0251: real time    0.0251
    EDDIAG:  cpu time    5.5848: real time    5.5862
  RMM-DIIS:  cpu time   20.6452: real time   20.6528
    ORTHCH:  cpu time    1.5450: real time    1.5453
 BZINTS: Fermi energy: -0.049312;608.000000 electrons
         Band energy:***********;  BLOECHL correction: -0.009794
       DOS:  cpu time    0.0508: real time    0.0509
    CHARGE:  cpu time    1.0213: real time    1.0215
    MIXING:  cpu time    0.0086: real time    0.0085
    --------------------------------------------
      LOOP:  cpu time   29.3048: real time   29.3239

 eigenvalue-minimisations  :  8199
 total energy-change (2. order) : 0.3038189E-03  (-0.2645511E-04)
 number of electron     608.0000027 magnetization      67.8262824
 augmentation part      335.4553785 magnetization      56.3484540

 DIPCOR: dipole corrections for dipol
 direction  3 min pos   237,
 dipolmoment           0.000000      0.000000      0.353530 electrons x Angstroem
 Tr[quadrupol]    -10392.185417

 energy correction for charged system         0.000000 eV
 dipol+quadrupol energy correction           -0.006022 eV
 added-field ion interaction         -4.795464 eV  (added to PSCEN)


 Broyden mixing:
  rms(total) = 0.32605E-01    rms(broyden)= 0.32604E-01
  rms(prec ) = 0.36238E-01
  weight for this iteration     100.00

 eigenvalues of (default mixing * dielectric matrix)
  average eigenvalue GAMMA=   0.4146
  1.1514  1.1514  1.0012  0.6715  0.2881  0.1614  0.0442  0.0614  0.1313  0.1189
  0.0988  0.0961

 Free energy of the ion-electron system (eV)
  ---------------------------------------------------
  alpha Z        PSCENC =      1444.79686023
  Ewald energy   TEWEN  =    197569.37391233
  -Hartree energ DENC   =   -252664.06585273
  -exchange      EXHF   =         0.00000000
  -V(xc)+E(xc)   XCENC  =      1282.50752256
  PAW double counting   =     61619.88725660   -64172.95420119
  entropy T*S    EENTRO =         0.00000000
  eigenvalues    EBANDS =     -1677.36604568
  atomic energy  EATOM  =     56148.62337470
  Solvation  Ediel_sol  =         0.00000000
  ---------------------------------------------------
  free energy    TOTEN  =      -449.19717318 eV

  energy without entropy =     -449.19717318  energy(sigma->0) =     -449.19717318


--------------------------------------------------------------------------------------------------------




--------------------------------------- Iteration      1(  14)  ---------------------------------------


    POTLOK:  cpu time    0.4225: real time    0.4343
    SETDIJ:  cpu time    0.0250: real time    0.0250
    EDDIAG:  cpu time    5.5884: real time    5.5897
  RMM-DIIS:  cpu time   20.2984: real time   20.3054
    ORTHCH:  cpu time    1.5425: real time    1.5429
 BZINTS: Fermi energy: -0.049835;608.000000 electrons
         Band energy:***********;  BLOECHL correction: -0.009841
       DOS:  cpu time    0.0497: real time    0.0497
    CHARGE:  cpu time    1.0220: real time    1.0223
    MIXING:  cpu time    0.0090: real time    0.0090
    --------------------------------------------
      LOOP:  cpu time   28.9576: real time   28.9783

 eigenvalue-minimisations  :  8071
 total energy-change (2. order) : 0.1061265E-03  (-0.5434039E-04)
 number of electron     608.0000027 magnetization      67.8005127
 augmentation part      335.4559347 magnetization      56.3198645

 DIPCOR: dipole corrections for dipol
 direction  3 min pos   237,
 dipolmoment           0.000000      0.000000      0.355032 electrons x Angstroem
 Tr[quadrupol]    -10392.183755

 energy correction for charged system         0.000000 eV
 dipol+quadrupol energy correction           -0.006074 eV
 added-field ion interaction         -4.815833 eV  (added to PSCEN)


 Broyden mixing:
  rms(total) = 0.33089E-01    rms(broyden)= 0.33088E-01
  rms(prec ) = 0.36022E-01
  weight for this iteration     100.00

 eigenvalues of (default mixing * dielectric matrix)
  average eigenvalue GAMMA=   0.4729
  1.2211  1.3727  1.3727  0.7196  0.6131  0.0442  0.0614  0.1623  0.1454  0.1278
  0.1117  0.0997  0.0955

 Free energy of the ion-electron system (eV)
  ---------------------------------------------------
  alpha Z        PSCENC =      1444.77643991
  Ewald energy   TEWEN  =    197569.37391233
[...]
   -.278E+02 0.178E+03 -.243E+04   0.277E+02 -.180E+03 0.243E+04   0.140E+00 0.234E+01 0.599E+00   0.873E-03 0.643E-03 0.631E-02
   0.952E+02 -.486E+02 0.285E+04   -.956E+02 0.486E+02 -.285E+04   0.162E+00 0.463E-01 -.392E+00   -.988E-04 -.654E-03 0.537E-02
   0.579E+02 0.654E+02 -.244E+04   -.576E+02 -.679E+02 0.244E+04   -.227E+00 0.248E+01 0.125E+01   -.138E-02 0.132E-02 0.718E-02
   -.172E+02 0.767E+02 0.806E+03   0.176E+02 -.768E+02 -.806E+03   -.328E+00 0.959E-01 -.111E+00   0.126E-02 0.776E-03 0.157E-01
   0.875E+01 -.142E+02 -.611E+03   -.896E+01 0.141E+02 0.611E+03   0.206E+00 0.101E+00 -.469E+00   -.160E-02 0.216E-02 0.151E-01
   0.831E+01 -.358E+02 0.846E+03   -.815E+01 0.356E+02 -.846E+03   0.279E-01 0.223E+00 -.141E+00   -.902E-03 0.333E-03 0.158E-01
   0.648E+02 -.482E+02 0.228E+04   -.648E+02 0.480E+02 -.228E+04   0.123E+00 -.677E-03 -.227E+01   -.873E-03 0.984E-04 0.503E-02
   -.573E+01 -.721E+02 -.194E+04   0.637E+01 0.727E+02 0.194E+04   -.635E+00 -.659E+00 0.136E+01   -.962E-03 0.131E-02 0.480E-02
   0.134E+02 0.340E+02 -.574E+03   -.126E+02 -.346E+02 0.574E+03   -.797E+00 0.642E+00 0.426E+00   0.761E-03 0.352E-03 0.172E-01
   -.189E+02 0.120E+02 0.227E+04   0.185E+02 -.125E+02 -.227E+04   0.164E+00 0.428E+00 -.271E+01   0.724E-03 0.368E-03 0.514E-02
   -.687E+02 -.104E+03 -.194E+04   0.687E+02 0.104E+03 0.193E+04   -.165E-01 -.765E+00 0.811E+00   -.248E-02 0.147E-02 0.439E-02
   -.560E+02 -.523E+02 0.782E+03   0.557E+02 0.530E+02 -.781E+03   0.508E+00 -.464E+00 -.111E+01   -.159E-02 -.678E-03 0.143E-01
   -.142E+03 -.140E+02 -.606E+03   0.143E+03 0.142E+02 0.606E+03   -.801E+00 -.224E+00 0.312E+00   0.269E-03 -.102E-02 0.147E-01
   0.769E+02 -.449E+02 0.828E+03   -.770E+02 0.457E+02 -.829E+03   -.117E+00 -.377E+00 0.606E-01   -.248E-02 -.727E-03 0.136E-01
   0.674E+02 -.564E+02 -.551E+03   -.681E+02 0.566E+02 0.551E+03   0.696E+00 -.240E+00 0.505E+00   -.296E-02 -.169E-02 0.145E-01
   0.262E+01 -.512E+01 0.225E+04   -.245E+01 0.540E+01 -.225E+04   -.260E-01 -.201E+00 -.205E+01   -.929E-03 0.267E-02 0.593E-02
   -.410E+01 0.392E+01 -.197E+04   0.377E+01 -.455E+01 0.196E+04   0.324E+00 0.669E+00 0.404E+01   -.234E-02 -.802E-03 0.423E-02
   0.430E+02 -.568E+01 0.227E+04   -.432E+02 0.593E+01 -.227E+04   0.115E+00 -.250E+00 -.249E+01   0.501E-03 0.128E-02 0.415E-02
   0.367E+02 -.120E+02 -.203E+04   -.364E+02 0.120E+02 0.203E+04   -.367E+00 -.388E-03 0.380E+01   0.160E-02 -.931E-03 0.568E-02
   -.115E+03 0.497E+02 0.785E+03   0.115E+03 -.501E+02 -.785E+03   -.122E+00 0.238E+00 -.421E+00   0.533E-03 -.243E-02 0.146E-01
   -.848E+01 0.440E+02 0.777E+03   0.851E+01 -.442E+02 -.777E+03   0.779E-01 0.266E+00 -.647E+00   -.185E-02 -.128E-02 0.129E-01
   -.403E+02 0.246E+02 -.558E+03   0.401E+02 -.249E+02 0.558E+03   0.213E+00 0.264E+00 -.451E-01   -.222E-02 -.985E-03 0.149E-01
   -.761E+02 0.218E+02 0.222E+04   0.761E+02 -.217E+02 -.221E+04   -.114E-01 -.527E-01 -.257E+01   0.150E-02 -.612E-03 0.521E-02
   -.138E+03 -.108E+02 -.201E+04   0.139E+03 0.111E+02 0.201E+04   -.107E+01 -.269E+00 0.154E+01   0.304E-04 -.684E-03 0.362E-02
   0.529E+02 -.291E+02 -.558E+03   -.527E+02 0.295E+02 0.558E+03   -.207E+00 -.359E+00 -.235E+00   -.155E-02 0.167E-03 0.160E-01
   0.842E+02 -.662E+02 -.614E+03   -.845E+02 0.666E+02 0.615E+03   0.257E+00 -.410E+00 -.705E+00   0.201E-02 -.115E-02 0.149E-01
   0.560E+02 -.383E+01 0.226E+04   -.560E+02 0.361E+01 -.226E+04   -.220E+00 0.791E-01 -.221E+01   -.516E-03 0.102E-02 0.392E-02
   -.586E+02 -.668E+02 -.199E+04   0.595E+02 0.676E+02 0.199E+04   -.883E+00 -.834E+00 0.150E+01   -.474E-03 -.717E-03 0.600E-02
   0.546E+02 -.395E+02 -.580E+03   -.550E+02 0.397E+02 0.580E+03   0.425E+00 -.205E+00 0.425E+00   0.120E-02 0.955E-03 0.144E-01
   -.503E+02 0.319E+02 -.553E+03   0.503E+02 -.324E+02 0.553E+03   -.327E-01 0.401E+00 0.794E+00   -.784E-04 -.983E-03 0.164E-01
   -.402E+02 0.732E+02 -.533E+03   0.401E+02 -.731E+02 0.532E+03   0.423E-01 -.108E+00 0.109E+01   -.442E-03 0.705E-03 0.173E-01
   0.303E+02 0.978E+01 -.610E+03   -.303E+02 -.986E+01 0.610E+03   -.328E-02 0.110E+00 0.348E+00   -.654E-03 0.334E-02 0.158E-01
   0.254E+01 0.502E+01 0.221E+04   -.214E+01 -.486E+01 -.221E+04   -.286E+00 -.291E+00 -.241E+01   -.426E-03 -.172E-02 0.450E-02
   -.280E+02 0.113E+03 -.188E+04   0.286E+02 -.114E+03 0.188E+04   -.667E+00 0.336E+00 0.169E+01   -.174E-02 0.287E-02 0.721E-02
   -.466E+02 -.333E+02 -.197E+04   0.469E+02 0.301E+02 0.200E+04   -.263E+00 0.319E+01 -.268E+02   -.264E-02 0.237E-02 -.224E-02
   -.922E+01 0.465E+01 -.202E+04   0.754E+01 -.641E+01 0.205E+04   0.166E+01 0.176E+01 -.275E+02   -.352E-04 0.230E-03 -.263E-02
   -.370E+02 -.143E+02 -.204E+04   0.351E+02 0.137E+02 0.206E+04   0.195E+01 0.652E+00 -.272E+02   0.510E-03 -.115E-02 -.358E-02
   0.513E+02 0.141E+02 -.205E+04   -.512E+02 -.158E+02 0.207E+04   -.898E-01 0.178E+01 -.283E+02   0.166E-02 -.646E-03 -.394E-02
   -.417E+02 0.378E+02 -.198E+04   0.404E+02 -.392E+02 0.201E+04   0.126E+01 0.138E+01 -.275E+02   0.721E-04 0.102E-02 -.494E-02
 -----------------------------------------------------------------------------------------------
   -.678E+01 -.107E+02 0.140E+03   0.412E-12 0.711E-12 -.387E-11   0.678E+01 0.107E+02 -.141E+03   0.515E-02 0.874E-04 0.709E+00
 
 
 POSITION                                       TOTAL-FORCE (eV/Angst)
 -----------------------------------------------------------------------------------
     10.08740      0.00562      4.04934        -0.105207     -0.110660     -0.206003
     -2.53339      8.73512      4.08190        -0.058830      0.066377     -0.226412
      5.03058      0.01686      4.07661         0.011558     -0.172200     -0.202336
      8.81557      2.19268      4.07950        -0.000246     -0.194580     -0.244283
      1.26036      2.17683      4.06343        -0.065752      0.022289     -0.256875
      2.53423      1.44302      6.08312        -0.001814     -0.010622     -0.014511
      6.28789      2.21111      4.10570         0.052912     -0.200972     -0.342364
      3.80181      0.73423      2.00037         0.090415     -0.033083      0.450083
      3.72765      0.76399      8.10095        -0.021182      0.002572     -0.016278
      7.57968      1.43064      6.17323        -0.011914     -0.001808     -0.018829
      6.31884      0.74108      2.03384         0.080217     -0.063096      0.411850
      6.22497      0.79948      8.28204         0.004818     -0.001054      0.001405
      7.57051      4.36576      4.10283        -0.065040      0.175928     -0.442924
      5.03817      4.36229      4.08171        -0.023229      0.063772     -0.441241
      3.79818      3.60279      6.06939        -0.001896     -0.001109     -0.000116
      2.55462      2.91604      2.00083        -0.049393      0.356256      0.256866
      2.51351      2.90756      8.10561         0.017629      0.002158     -0.004299
      6.28954      3.61277      6.09938         0.009898      0.003274      0.013768
      7.58585      2.93043      2.03371         0.070073      0.005519      0.446995
      7.55155      2.91800      8.15239        -0.021038      0.021902     -0.000120
      6.29425      6.55133      4.09263         0.058346     -0.054764     -0.224712
     -2.54145      5.78892      6.10492         0.003978      0.012617      0.008938
      3.81389      6.57546      4.07284        -0.242306      0.001924     -0.199680
      1.26871      5.10416      2.04534         0.122944     -0.164222      0.414907
      1.22423      5.11575      8.19339         0.000208      0.036583      0.020480
      6.29450      5.11374      2.02823        -0.055604      0.057220      0.359206
      6.21547      5.09838      8.17095        -0.014330     -0.002001     -0.015951
     -2.53139      7.30304      2.00991         0.020713     -0.138317      0.343745
     -2.56551      7.30999      8.01213        -0.007767      0.015501      0.007589
      0.00464      7.28975      2.05722        -0.003541      0.072769      0.272809
     -0.06958      7.22959      8.17531         0.042773      0.033619      0.011914
      5.08583      7.28318      2.02757        -0.235624      0.065065      0.286448
      5.06595      7.22366      8.14140         0.014000      0.016314      0.015238
      7.54405      0.03969      4.10439         0.098065     -0.021542     -0.382469
     -0.01125      1.43550      6.05955        -0.007011     -0.016749     -0.021882
      3.74186      2.14689      4.07389         0.191753     -0.025929     -0.465922
      1.31001      0.72945      2.02674         0.139185     -0.137148      0.165673
      1.31712      0.79520      8.09266         0.001207      0.027532     -0.007807
      5.10362      1.36785      6.09413        -0.030602      0.038981     -0.004384
      8.82791      0.75063      2.00000        -0.226957     -0.107598      0.276795
      8.83274      0.78231      8.26811        -0.014721      0.022324      0.008177
     -0.02406      4.34464      4.11684         0.252052      0.153981     -0.336194
     -1.35194      3.63180      6.10055         0.000452      0.002858     -0.038550
      2.55702      4.37025      4.05869        -0.239881      0.433324     -0.878278
      1.29711      3.62667      6.09483        -0.035057      0.036017     -0.024076
      0.02215      2.94990      2.02984         0.139095      0.074644      0.425207
     -0.01328      2.95010      8.03884        -0.002865      0.034304     -0.014852
      5.09719      2.93887      2.04043        -0.117766      0.023787     -0.045331
      5.02110      2.95775      8.03950         0.005396      0.006096      0.020156
     -1.32764      6.58396      4.11125         0.170252     -0.237993     -0.356318
      1.24700      6.55932      4.09363         0.112395      0.034089     -0.038939
      0.04848      5.77609      6.15121         0.031492     -0.009667      0.026025
     -1.29718      5.12819      2.06865         0.026576      0.065025      0.219114
     -1.28718      5.14953      8.20934        -0.005817      0.006447     -0.001992
      2.57281      5.81184      6.09640        -0.021579      0.016094      0.008378
      5.05502      5.74455      6.10782         0.006064      0.034419     -0.003715
      3.79261      5.11061      2.02334        -0.268572     -0.149065      1.055477
      3.76031      5.15611      8.19857         0.001259     -0.014873     -0.022754
     -3.80174      7.97183      6.04558         0.011678      0.003350      0.002476
     -1.26288      7.96412      6.09455         0.030753     -0.047553     -0.026972
      1.23274      7.97983      6.05091         0.020974     -0.038735      0.038093
      3.78207      7.99654      6.12671         0.005052      0.041602     -0.023820
      2.54183      7.29082      2.05307         0.125526     -0.134609      0.036835
      2.44969      7.26246      8.14310        -0.020891      0.029420      0.013232
      0.14453      0.02086      9.22666         0.018440      0.005881     -0.019032
      2.56001      4.35029      9.29517        -0.012269     -0.000933     -0.010449
      7.55342      4.39115      9.29362         0.016271      0.002143      0.001679
     -0.20412      8.71574      9.26249        -0.011691      0.006926     -0.004621
      2.51840      8.69376      9.29192        -0.004026     -0.040017     -0.034264
 -----------------------------------------------------------------------------------
    total drift:                                0.004205     -0.002978      0.002848


--------------------------------------------------------------------------------------------------------



  FREE ENERGIE OF THE ION-ELECTRON SYSTEM (eV)
  ---------------------------------------------------
  free  energy   TOTEN  =      -464.87848831 eV

  energy  without entropy=     -464.87848831  energy(sigma->0) =     -464.87848831
 


--------------------------------------------------------------------------------------------------------


    POTLOK:  cpu time    0.4553: real time    0.4554


--------------------------------------------------------------------------------------------------------


 stress matrix after NEB project (eV)
    -33.42220     -0.19662      0.29097
     -0.19662    -38.57941      1.37004
      0.29097      1.37004    -11.92465
  FORCES: max atom, RMS     0.062725    0.024462
  FORCE total and by dimension    0.203193    0.047553
  Stress total and by dimension   52.455814   38.579410
 writing wavefunctions
     LOOP+:  cpu time 1065.8531: real time 1151.2074
    4ORBIT:  cpu time    0.0000: real time    0.0000
 


 total charge     
 
# of ion       s       p       d       tot
------------------------------------------
    1        0.505   0.510   8.312   9.327
    2        0.505   0.513   8.337   9.354
    3        0.513   0.518   8.343   9.374
    4        0.505   0.506   8.329   9.340
    5        0.511   0.513   8.340   9.364
    6        0.521   0.532   8.337   9.389
    7        0.495   0.496   8.333   9.325
    8        0.485   0.372   8.311   9.168
    9        0.523   0.555   8.336   9.414
   10        0.508   0.507   8.335   9.351
   11        0.493   0.379   8.305   9.177
   12        0.468   0.560   8.334   9.362
   13        0.504   0.504   8.321   9.329
   14        0.505   0.511   8.326   9.343
   15        0.521   0.529   8.345   9.395
   16        0.503   0.388   8.316   9.207
   17        0.506   0.517   8.345   9.368
   18        0.512   0.513   8.353   9.378
   19        0.490   0.381   8.329   9.200
   20        0.495   0.501   8.346   9.343
   21        0.498   0.497   8.322   9.317
   22        0.513   0.523   8.330   9.366
   23        0.509   0.515   8.321   9.345
   24        0.505   0.395   8.314   9.214
   25        0.503   0.511   8.329   9.343
   26        0.490   0.380   8.314   9.185
   27        0.499   0.502   8.328   9.329
   28        0.495   0.370   8.313   9.177
   29        0.488   0.387   8.371   9.246
   30        0.489   0.374   8.324   9.187
   31        0.510   0.509   8.332   9.350
   32        0.495   0.391   8.296   9.182
   33        0.494   0.488   8.340   9.322
   34        0.472   0.506   6.182   7.160
   35        0.478   0.513   6.204   7.196
   36        0.472   0.508   6.157   7.137
   37        0.471   0.391   6.098   6.960
   38        0.490   0.547   6.216   7.252
   39        0.484   0.520   6.171   7.175
   40        0.466   0.385   6.117   6.969
   41        0.456   0.593   6.230   7.279
   42        0.480   0.514   6.225   7.219
   43        0.481   0.521   6.206   7.208
   44        0.480   0.519   6.163   7.162
   45        0.481   0.517   6.223   7.221
   46        0.472   0.410   6.083   6.965
   47        0.471   0.408   6.201   7.080
   48        0.471   0.393   6.087   6.950
   49        0.464   0.405   6.145   7.015
   50        0.471   0.509   6.195   7.174
   51        0.480   0.523   6.192   7.195
   52        0.487   0.532   6.226   7.245
   53        0.471   0.393   6.112   6.976
   54        0.477   0.515   6.184   7.176
   55        0.489   0.524   6.245   7.258
   56        0.482   0.524   6.189   7.195
   57        0.449   0.365   6.262   7.077
   58        0.486   0.530   6.230   7.246
   59        0.480   0.512   6.196   7.188
   60        0.483   0.518   6.202   7.203
   61        0.491   0.529   6.219   7.239
   62        0.475   0.507   6.208   7.189
   63        0.474   0.391   6.119   6.985
   64        0.466   0.501   6.209   7.176
   65        1.584   3.367   0.000   4.951
   66        1.582   3.347   0.000   4.929
   67        1.581   3.351   0.000   4.932
   68        1.585   3.333   0.000   4.918
   69        1.586   3.368   0.000   4.954
--------------------------------------------------
tot         39.225  47.438 466.561 553.224
 


 magnetization (x)
 
# of ion       s       p       d       tot
------------------------------------------
    1       -0.019  -0.049   0.768   0.699
    2       -0.021  -0.036   0.606   0.549
    3       -0.005  -0.014   0.162   0.143
    4       -0.013  -0.027   0.483   0.443
    5       -0.009  -0.026   0.341   0.306
    6       -0.014  -0.031   0.445   0.401
    7       -0.011  -0.025   0.413   0.377
    8       -0.016  -0.023   0.614   0.575
    9       -0.009  -0.016   0.201   0.176
   10       -0.008  -0.021   0.286   0.256
   11       -0.019  -0.026   0.670   0.625
   12       -0.000  -0.004   0.010   0.006
   13       -0.014  -0.038   0.707   0.655
   14       -0.010  -0.026   0.516   0.481
   15       -0.016  -0.037   0.515   0.462
   16       -0.004  -0.017   0.209   0.187
   17       -0.014  -0.022   0.477   0.441
   18       -0.011  -0.024   0.502   0.467
   19       -0.004  -0.023   0.435   0.408
   20       -0.014  -0.015   0.561   0.532
   21       -0.013  -0.033   0.700   0.654
   22       -0.022  -0.049   0.721   0.651
   23       -0.012  -0.027   0.435   0.396
   24       -0.001  -0.010   0.083   0.072
   25       -0.020  -0.028   0.547   0.499
   26       -0.012  -0.022   0.527   0.492
   27       -0.015  -0.026   0.565   0.524
   28       -0.012  -0.024   0.668   0.632
   29       -0.020  -0.014   0.715   0.681
   30       -0.010  -0.023   0.346   0.312
   31       -0.016  -0.019   0.395   0.361
   32       -0.017  -0.033   0.619   0.569
   33       -0.017  -0.027   0.551   0.508
   34        0.010  -0.007   2.492   2.494
   35       -0.003  -0.031   2.599   2.566
   36        0.019   0.001   2.672   2.692
   37        0.024   0.011   2.859   2.894
   38        0.008   0.005   2.447   2.460
   39       -0.027  -0.040  -2.458  -2.524
   40        0.017  -0.005   2.796   2.808
   41        0.005   0.000   2.230   2.236
   42        0.006  -0.005   2.173   2.175
   43       -0.005  -0.028   2.640   2.607
   44       -0.026  -0.036  -2.370  -2.433
   45       -0.002  -0.014   2.453   2.437
   46       -0.052  -0.051  -2.671  -2.773
   47       -0.005  -0.013   2.830   2.812
   48        0.024  -0.002   2.906   2.928
   49        0.021   0.010   2.899   2.930
   50        0.004  -0.015   2.554   2.542
   51       -0.026  -0.036  -2.152  -2.215
   52        0.002  -0.014   2.238   2.226
   53        0.018   0.005   2.813   2.836
   54        0.013   0.003   2.627   2.643
   55        0.005  -0.011   2.190   2.185
   56        0.002  -0.010   2.586   2.579
   57       -0.012  -0.010  -0.111  -0.133
   58        0.007  -0.003   2.429   2.433
   59       -0.002  -0.024   2.704   2.679
   60        0.009   0.002   2.519   2.531
   61       -0.027  -0.039  -1.992  -2.058
   62       -0.005  -0.029   2.505   2.471
   63        0.021   0.001   2.732   2.754
   64        0.011  -0.001   2.523   2.534
   65        0.003   0.088   0.000   0.091
   66        0.002   0.066   0.000   0.069
   67        0.002   0.092   0.000   0.095
   68        0.000   0.009   0.000   0.009
   69        0.002   0.040   0.000   0.042
--------------------------------------------------
tot         -0.373  -0.924  68.453  67.156
 
 BZINTS: Fermi energy: -0.032197;608.000000 electrons
         Band energy:***********;  BLOECHL correction: -0.009751

 total amount of memory used by VASP MPI-rank0   114452. kBytes
=======================================================================

   base      :      30000. kBytes
   nonlr-proj:      13789. kBytes
   fftplans  :       6403. kBytes
   grid      :      17692. kBytes
   one-center:         93. kBytes
   wavefun   :      46475. kBytes
 
  
  
 General timing and accounting informations for this job:
 ========================================================
  
                  Total CPU time used (sec):     1241.544
                            User time (sec):     1074.779
                          System time (sec):      166.765
                         Elapsed time (sec):     1334.243
  
                   Maximum memory used (kb):      345936.
                   Average memory used (kb):           0.
  
                          Minor page faults:     18812529
                          Major page faults:           24
                 Voluntary context switches:         7310
