       N       E                     dE             d eps       ncg     rms          rms(c)
DAV:   1    -0.402774911823E+03   -0.40277E+03   -0.61010E-02  8586   0.235E+00    0.809E-01
RMM:   2    -0.402767917630E+03    0.69942E-02   -0.11428E-01  8475   0.994E-01    0.428E+00
RMM:   3    -0.402726797481E+03    0.41120E-01   -0.49301E-02  8616   0.598E-01    0.281E+00
RMM:   4    -0.402706671180E+03    0.20126E-01   -0.90239E-03  8526   0.229E-01    0.125E+00
RMM:   5    -0.402707578071E+03   -0.90689E-03   -0.67071E-03  8477   0.206E-01    0.124E+00
RMM:   6    -0.402703507232E+03    0.40708E-02   -0.32099E-03  8526   0.152E-01    0.529E-01
RMM:   7    -0.402703627836E+03   -0.12060E-03   -0.17017E-03  8558   0.103E-01    0.574E-01
RMM:   8    -0.402702817537E+03    0.81030E-03   -0.11959E-03  8520   0.882E-02    0.370E-01
RMM:   9    -0.402702491439E+03    0.32610E-03   -0.79859E-04  8505   0.735E-02    0.250E-01
RMM:  10    -0.402702487353E+03    0.40866E-05   -0.54344E-04  8489   0.580E-02    0.297E-01
RMM:  11    -0.402702286843E+03    0.20051E-03   -0.34078E-04  8555   0.484E-02    0.137E-01
RMM:  12    -0.402702388475E+03   -0.10163E-03   -0.18279E-04  8574   0.339E-02    0.178E-01
RMM:  13    -0.402702532569E+03   -0.14409E-03   -0.10926E-04  8526   0.276E-02    0.929E-02
RMM:  14    -0.402702667646E+03   -0.13508E-03   -0.58203E-05  8548   0.195E-02    0.705E-02
RMM:  15    -0.402703051137E+03   -0.38349E-03   -0.40197E-05  8308   0.155E-02    0.850E-02
RMM:  16    -0.402703290022E+03   -0.23889E-03   -0.29902E-05  8490   0.141E-02    0.378E-02
RMM:  17    -0.402703534268E+03   -0.24425E-03   -0.17193E-05  8553   0.100E-02    0.502E-02
RMM:  18    -0.402703958247E+03   -0.42398E-03   -0.16833E-05  8429   0.925E-03    0.420E-02
RMM:  19    -0.402704136567E+03   -0.17832E-03   -0.10653E-05  8358   0.795E-03    0.321E-02
RMM:  20    -0.402704492504E+03   -0.35594E-03   -0.15753E-05  8384   0.849E-03    0.439E-02
RMM:  21    -0.402704670532E+03   -0.17803E-03   -0.11570E-05  8323   0.759E-03    0.204E-02
RMM:  22    -0.402704743017E+03   -0.72486E-04   -0.55901E-06  7563   0.556E-03    0.251E-02
RMM:  23    -0.402704777702E+03   -0.34685E-04   -0.35461E-06  6223   0.439E-03    0.175E-02
RMM:  24    -0.402704785098E+03   -0.73953E-05   -0.14854E-06  5180   0.335E-03    0.689E-03
RMM:  25    -0.402704802657E+03   -0.17559E-04   -0.98316E-07  5011   0.228E-03    0.997E-03
RMM:  26    -0.402704813724E+03   -0.11067E-04   -0.66462E-07  4993   0.227E-03    0.366E-03
RMM:  27    -0.402704822172E+03   -0.84488E-05   -0.24814E-07  4900   0.112E-03    0.518E-03
RMM:  28    -0.402704834692E+03   -0.12519E-04   -0.19934E-07  4868   0.107E-03    0.277E-03
RMM:  29    -0.402704839745E+03   -0.50531E-05   -0.78562E-08  4706   0.641E-04    0.263E-03
RMM:  30    -0.402704848605E+03   -0.88605E-05   -0.74190E-08  4021   0.504E-04    0.186E-03
RMM:  31    -0.402704852684E+03   -0.40785E-05   -0.35234E-08  3794   0.437E-04    0.158E-03
RMM:  32    -0.402704860782E+03   -0.80984E-05   -0.57848E-08  3114   0.393E-04    0.136E-03
RMM:  33    -0.402704864488E+03   -0.37056E-05   -0.23647E-08  2649   0.345E-04    0.933E-04
RMM:  34    -0.402704871329E+03   -0.68415E-05   -0.81509E-08  3275   0.394E-04    0.119E-03
RMM:  35    -0.402704875902E+03   -0.45732E-05   -0.53410E-08  2774   0.361E-04    0.933E-04
RMM:  36    -0.402704881611E+03   -0.57085E-05   -0.10152E-07  3317   0.395E-04    0.965E-04
RMM:  37    -0.402704885393E+03   -0.37826E-05   -0.69274E-08  2754   0.361E-04    0.524E-04
RMM:  38    -0.402704887701E+03   -0.23073E-05   -0.49612E-08  2630   0.344E-04    0.580E-04
RMM:  39    -0.402704889480E+03   -0.17791E-05   -0.39576E-08  2290   0.324E-04    0.258E-04
RMM:  40    -0.402704889849E+03   -0.36949E-06   -0.10059E-08  1546   0.303E-04
   1 F= -.41945651E+03 E0= -.41945651E+03  d E =0.000000E+00  mag=    73.5695
