 vasp.5.4.4.18Apr17-6-g9f103f2a35 (build Dec 15 2018 21:27:11) complex          
  
 executed on             LinuxIFC date 2022.02.23  03:35:08
 running on   72 total cores
 distrk:  each k-point on   72 cores,    1 groups
 distr:  one band on NCORES_PER_BAND=  24 cores,    3 groups


--------------------------------------------------------------------------------------------------------


 INCAR:
 POTCAR:    PAW_PBE Ni 02Aug2007                  
 POTCAR:    PAW_PBE Fe 06Sep2000                  
 POTCAR:    PAW_PBE O 08Apr2002                   

 ----------------------------------------------------------------------------- 
|                                                                             |
|           W    W    AA    RRRRR   N    N  II  N    N   GGGG   !!!           |
|           W    W   A  A   R    R  NN   N  II  NN   N  G    G  !!!           |
|           W    W  A    A  R    R  N N  N  II  N N  N  G       !!!           |
|           W WW W  AAAAAA  RRRRR   N  N N  II  N  N N  G  GGG   !            |
|           WW  WW  A    A  R   R   N   NN  II  N   NN  G    G                |
|           W    W  A    A  R    R  N    N  II  N    N   GGGG   !!!           |
|                                                                             |
|      For optimal performance we recommend to set                            |
|        NCORE= 4 - approx SQRT( number of cores)                             |
|      NCORE specifies how many cores store one orbital (NPAR=cpu/NCORE).     |
|      This setting can  greatly improve the performance of VASP for DFT.     |
|      The default,   NCORE=1            might be grossly inefficient         |
|      on modern multi-core architectures or massively parallel machines.     |
|      Do your own testing !!!!                                               |
|      Unfortunately you need to use the default for GW and RPA calculations. |
|      (for HF NCORE is supported but not extensively tested yet)             |
|                                                                             |
 ----------------------------------------------------------------------------- 

 POTCAR:    PAW_PBE Ni 02Aug2007                  
   VRHFIN =Ni:                                                                  
   LEXCH  = PE                                                                  
   EATOM  =  1077.6739 eV,   79.2068 Ry                                         
                                                                                
   TITEL  = PAW_PBE Ni 02Aug2007                                                
   LULTRA =        F    use ultrasoft PP ?                                      
   IUNSCR =        1    unscreen: 0-lin 1-nonlin 2-no                           
   RPACOR =    2.000    partial core radius                                     
   POMASS =   58.690; ZVAL   =   10.000    mass and valenz                      
   RCORE  =    2.300    outmost cutoff radius                                   
   RWIGS  =    2.430; RWIGS  =    1.286    wigner-seitz radius (au A)           
   ENMAX  =  269.532; ENMIN  =  202.149 eV                                      
   RCLOC  =    1.201    cutoff for local pot                                    
   LCOR   =        T    correct aug charges                                     
   LPAW   =        T    paw PP                                                  
   EAUG   =  544.565                                                            
   DEXC   =    0.000                                                            
   RMAX   =    2.357    core radius for proj-oper                               
   RAUG   =    1.300    factor for augmentation sphere                          
   RDEP   =    2.390    radius for radial grids                                 
   RDEPT  =    1.838    core radius for aug-charge                              
                                                                                
   Atomic configuration                                                         
    9 entries                                                                   
     n  l   j            E        occ.                                          
     1  0  0.50     -8206.4253   2.0000                                         
     2  0  0.50      -976.1748   2.0000                                         
     2  1  1.50      -839.0571   6.0000                                         
     3  0  0.50      -105.9991   2.0000                                         
     3  1  1.50       -66.4603   6.0000                                         
     3  2  2.50        -4.6458   9.0000                                         
     4  0  0.50        -4.4926   1.0000                                         
     4  1  1.50        -4.0817   0.0000                                         
     4  3  2.50        -1.3606   0.0000                                         
   Description                                                                  
     l       E           TYP  RCUT    TYP  RCUT                                 
     2     -4.6457903     23  2.300                                             
     2     -6.0063729     23  2.300                                             
     0     -4.4925590     23  2.300                                             
     0      5.0102601     23  2.300                                             
     1     -2.7211652     23  2.300                                             
     1     16.5183231     23  2.300                                             
  local pseudopotential read in
  partial core-charges read in
  partial kinetic energy density read in
  atomic valenz-charges read in
  non local Contribution for L=           2  read in
    real space projection operators read in
  non local Contribution for L=           2  read in
    real space projection operators read in
  non local Contribution for L=           0  read in
    real space projection operators read in
  non local Contribution for L=           0  read in
    real space projection operators read in
  non local Contribution for L=           1  read in
    real space projection operators read in
  non local Contribution for L=           1  read in
    real space projection operators read in
    PAW grid and wavefunctions read in
 
   number of l-projection  operators is LMAX  =           6
   number of lm-projection operators is LMMAX =          18
 
 POTCAR:    PAW_PBE Fe 06Sep2000                  
   VRHFIN =Fe:  d7 s1                                                           
   LEXCH  = PE                                                                  
   EATOM  =   594.3153 eV,   43.6809 Ry                                         
                                                                                
   TITEL  = PAW_PBE Fe 06Sep2000                                                
   LULTRA =        F    use ultrasoft PP ?                                      
   IUNSCR =        1    unscreen: 0-lin 1-nonlin 2-no                           
   RPACOR =    2.000    partial core radius                                     
   POMASS =   55.847; ZVAL   =    8.000    mass and valenz                      
   RCORE  =    2.300    outmost cutoff radius                                   
   RWIGS  =    2.460; RWIGS  =    1.302    wigner-seitz radius (au A)           
   ENMAX  =  267.882; ENMIN  =  200.911 eV                                      
   RCLOC  =    1.701    cutoff for local pot                                    
   LCOR   =        T    correct aug charges                                     
   LPAW   =        T    paw PP                                                  
   EAUG   =  511.368                                                            
   DEXC   =    0.000                                                            
   RMAX   =    2.356    core radius for proj-oper                               
   RAUG   =    1.300    factor for augmentation sphere                          
   RDEP   =    2.442    radius for radial grids                                 
   RDEPT  =    1.890    core radius for aug-charge                              
                                                                                
   Atomic configuration                                                         
    9 entries                                                                   
     n  l   j            E        occ.                                          
     1  0  0.50     -6993.8440   2.0000                                         
     2  0  0.50      -814.6047   2.0000                                         
     2  1  1.50      -693.3689   6.0000                                         
     3  0  0.50       -89.4732   2.0000                                         
     3  1  1.50       -55.6373   6.0000                                         
     3  2  2.50        -3.8151   7.0000                                         
     4  0  0.50        -4.2551   1.0000                                         
     4  1  1.50        -3.4015   0.0000                                         
     4  3  2.50        -1.3606   0.0000                                         
   Description                                                                  
     l       E           TYP  RCUT    TYP  RCUT                                 
     2     -3.8151135     23  2.300                                             
     2     -5.1756961     23  2.300                                             
     0     -4.2550963     23  2.300                                             
     0      7.2035603     23  2.300                                             
     1     -2.7211652     23  2.300                                             
     1     18.4316424     23  2.300                                             
  local pseudopotential read in
  partial core-charges read in
  partial kinetic energy density read in
  atomic valenz-charges read in
  non local Contribution for L=           2  read in
    real space projection operators read in
  non local Contribution for L=           2  read in
    real space projection operators read in
  non local Contribution for L=           0  read in
    real space projection operators read in
  non local Contribution for L=           0  read in
    real space projection operators read in
  non local Contribution for L=           1  read in
    real space projection operators read in
  non local Contribution for L=           1  read in
    real space projection operators read in
    PAW grid and wavefunctions read in
 
   number of l-projection  operators is LMAX  =           6
   number of lm-projection operators is LMMAX =          18
 
 POTCAR:    PAW_PBE O 08Apr2002                   
   VRHFIN =O: s2p4                                                              
   LEXCH  = PE                                                                  
   EATOM  =   432.3788 eV,   31.7789 Ry                                         
                                                                                
   TITEL  = PAW_PBE O 08Apr2002                                                 
   LULTRA =        F    use ultrasoft PP ?                                      
   IUNSCR =        1    unscreen: 0-lin 1-nonlin 2-no                           
   RPACOR =    1.200    partial core radius                                     
   POMASS =   16.000; ZVAL   =    6.000    mass and valenz                      
   RCORE  =    1.520    outmost cutoff radius                                   
   RWIGS  =    1.550; RWIGS  =    0.820    wigner-seitz radius (au A)           
   ENMAX  =  400.000; ENMIN  =  300.000 eV                                      
   ICORE  =        2    local potential                                         
   LCOR   =        T    correct aug charges                                     
   LPAW   =        T    paw PP                                                  
   EAUG   =  605.392                                                            
   DEXC   =    0.000                                                            
   RMAX   =    1.553    core radius for proj-oper                               
   RAUG   =    1.300    factor for augmentation sphere                          
   RDEP   =    1.550    radius for radial grids                                 
   RDEPT  =    1.329    core radius for aug-charge                              
                                                                                
   Atomic configuration                                                         
    4 entries                                                                   
     n  l   j            E        occ.                                          
     1  0  0.50      -514.6923   2.0000                                         
     2  0  0.50       -23.9615   2.0000                                         
     2  1  0.50        -9.0305   4.0000                                         
     3  2  1.50        -9.5241   0.0000                                         
   Description                                                                  
     l       E           TYP  RCUT    TYP  RCUT                                 
     0    -23.9615318     23  1.200                                             
     0     -9.5240782     23  1.200                                             
     1     -9.0304911     23  1.520                                             
     1      8.1634956     23  1.520                                             
     2     -9.5240782      7  1.500                                             
  local pseudopotential read in
  partial core-charges read in
  partial kinetic energy density read in
  kinetic energy density of atom read in
  atomic valenz-charges read in
  non local Contribution for L=           0  read in
    real space projection operators read in
  non local Contribution for L=           0  read in
    real space projection operators read in
  non local Contribution for L=           1  read in
    real space projection operators read in
  non local Contribution for L=           1  read in
    real space projection operators read in
    PAW grid and wavefunctions read in
 
   number of l-projection  operators is LMAX  =           4
   number of lm-projection operators is LMMAX =           8
 
 Optimization of the real space projectors (new method)

 maximal supplied QI-value         = 16.25
 optimisation between [QCUT,QGAM] = [ 11.54, 23.24] = [ 37.28,151.24] Ry 
 Optimized for a Real-space Cutoff    1.45 Angstroem

   l    n(q)    QCUT    max X(q) W(low)/X(q) W(high)/X(q)  e(spline) 
   2      9    11.539    60.317    0.19E-03    0.47E-04    0.16E-06
   2      9    11.539    55.921    0.19E-03    0.48E-04    0.16E-06
   0     10    11.539    51.690    0.80E-04    0.50E-04    0.24E-06
   0     10    11.539    30.015    0.73E-04    0.45E-04    0.22E-06
   1     10    11.539    18.849    0.87E-04    0.16E-03    0.71E-07
   1     10    11.539    14.624    0.73E-04    0.13E-03    0.64E-07
 Optimization of the real space projectors (new method)

 maximal supplied QI-value         = 16.25
 optimisation between [QCUT,QGAM] = [ 11.54, 23.24] = [ 37.28,151.24] Ry 
 Optimized for a Real-space Cutoff    1.53 Angstroem

   l    n(q)    QCUT    max X(q) W(low)/X(q) W(high)/X(q)  e(spline) 
   2     10    11.539    80.901    0.11E-03    0.14E-03    0.21E-06
   2     10    11.539    75.754    0.11E-03    0.14E-03    0.22E-06
   0     11    11.539    58.752    0.52E-04    0.18E-04    0.33E-06
   0     11    11.539    30.679    0.44E-04    0.16E-04    0.30E-06
   1     10    11.539    17.977    0.53E-04    0.29E-04    0.13E-06
   1     10    11.539    13.559    0.44E-04    0.25E-04    0.11E-06
 Optimization of the real space projectors (new method)

 maximal supplied QI-value         = 24.76
 optimisation between [QCUT,QGAM] = [ 11.64, 23.27] = [ 37.91,151.63] Ry 
 Optimized for a Real-space Cutoff    1.14 Angstroem

   l    n(q)    QCUT    max X(q) W(low)/X(q) W(high)/X(q)  e(spline) 
   0      8    11.635    20.381    0.10E-03    0.33E-03    0.24E-06
   0      8    11.635    15.268    0.11E-03    0.35E-03    0.26E-06
   1      7    11.635     5.964    0.24E-03    0.31E-03    0.30E-06
   1      7    11.635     5.382    0.22E-03    0.25E-03    0.26E-06
  PAW_PBE Ni 02Aug2007                  :
 energy of atom  1       EATOM=-1077.6739
 kinetic energy error for atom=    0.0030 (will be added to EATOM!!)
  PAW_PBE Fe 06Sep2000                  :
 energy of atom  2       EATOM= -594.3153
 kinetic energy error for atom=    0.0026 (will be added to EATOM!!)
  PAW_PBE O 08Apr2002                   :
 energy of atom  3       EATOM= -432.3788
 kinetic energy error for atom=    0.0208 (will be added to EATOM!!)
 
 
 POSCAR: POSCAR                                  
  positions in direct lattice
  velocities in cartesian coordinates
 exchange correlation table for  LEXCH =        8
   RHO(1)=    0.500       N(1)  =     2000
   RHO(2)=  100.500       N(2)  =     4000

 VTST: version 3.2, (02/03/18)

 CHAIN: initializing optimizer
 
 OPT: Using VASP Dynamics algorithm
 CHAIN: Read ICHAIN            0
 
 POSCAR: POSCAR                                  
  positions in direct lattice
  velocities in cartesian coordinates
 


--------------------------------------------------------------------------------------------------------


 ion  position               nearest neighbor table
   1  0.999  0.000  0.288-  47 2.47  18 2.48  50 2.48   8 2.49   5 2.49  41 2.49  49 2.49  33 2.50
                             2 2.51  26 2.51   4 2.51   6 2.53
   2  0.249  0.001  0.285-  11 2.45  51 2.46  44 2.46  50 2.47  26 2.49   9 2.50   1 2.51   6 2.51
                             3 2.51  27 2.52  41 2.55  43 2.55
   3  0.499  1.000  0.288-  43 2.47  64 2.47  14 2.47  51 2.47  17 2.48  45 2.50   4 2.50  27 2.50
                             9 2.51   2 2.51  30 2.52  12 2.52
   4  0.748  0.999  0.287-  16 2.43  48 2.46  17 2.46  18 2.48  30 2.49   3 2.50  64 2.51   1 2.51
                            33 2.51   5 2.51  12 2.53  47 2.54
   5  0.999  0.249  0.287-  60 2.43  16 2.43  22 2.48  18 2.48   1 2.49  52 2.50   6 2.51   4 2.51
                            12 2.51  19 2.52  21 2.52   8 2.54
   6  0.251  0.252  0.288-  11 2.42  56 2.47  52 2.48  22 2.49   9 2.50   5 2.51   2 2.51  50 2.52
                             1 2.53  53 2.53   8 2.55  55 2.55
   7  0.083  0.166  0.096-  50 2.47  15 2.50  40 2.50  18 2.50  54 2.50  10 2.50  46 2.51  22 2.51
                            20 2.51
   8  0.080  0.161  0.385-  67 1.86  47 2.42  41 2.44   1 2.49  16 2.50  11 2.50   5 2.54   6 2.55
                            21 2.58  55 2.58
   9  0.499  0.250  0.287-  11 2.44  59 2.44  56 2.46   6 2.50   2 2.50  53 2.50  51 2.51   3 2.51
                            12 2.51  23 2.52  14 2.54  25 2.56
  10  0.333  0.167  0.096-  13 2.50  56 2.50   7 2.50  24 2.51  40 2.51  42 2.51  50 2.51  54 2.52
                            51 2.52
  11  0.332  0.167  0.379-   6 2.42   9 2.44   2 2.45  55 2.49   8 2.50  41 2.51  25 2.51  14 2.52
                            43 2.52
  12  0.750  0.252  0.288-  16 2.43  59 2.45  60 2.46  58 2.49  23 2.49  17 2.50   9 2.51  19 2.51
                             5 2.51  14 2.52   3 2.52   4 2.53
  13  0.582  0.167  0.097-  51 2.48  24 2.49  42 2.50  17 2.50  10 2.50  63 2.52  59 2.52  57 2.52
                            15 2.53
  14  0.579  0.160  0.384-  65 1.86  43 2.43  64 2.44   3 2.47  11 2.52  16 2.52  12 2.52   9 2.54
                            58 2.59  25 2.59
  15  0.834  0.167  0.096-  20 2.49  60 2.49  18 2.49  46 2.49   7 2.50  17 2.51  63 2.51  57 2.53
                            13 2.53
  16  0.832  0.164  0.379-  12 2.43   4 2.43   5 2.43  64 2.49  47 2.50   8 2.50  21 2.51  14 2.52
                            58 2.53
  17  0.666  0.083  0.193-   4 2.46  60 2.47  51 2.48   3 2.48  59 2.49  13 2.50  12 2.50  45 2.50
                            48 2.51  15 2.51  63 2.51  18 2.52
  18  0.916  0.082  0.192-  50 2.46  60 2.47   1 2.48   4 2.48  46 2.48   5 2.48  15 2.49  49 2.50
                            48 2.50   7 2.50  22 2.51  17 2.52
  19  0.002  0.501  0.286-  60 2.48  52 2.49  27 2.49  29 2.49  39 2.49  21 2.50  58 2.51  12 2.51
                            23 2.52  61 2.52   5 2.52  26 2.52
  20  0.081  0.416  0.096-  61 2.48  15 2.49  57 2.49  22 2.50  54 2.51  28 2.51   7 2.51  31 2.52
                            60 2.53
  21  0.080  0.418  0.384-  67 1.86  58 2.44  29 2.45  19 2.50  52 2.51  16 2.51  32 2.52   5 2.52
                             8 2.58  55 2.59
  22  0.166  0.334  0.192-   5 2.48  52 2.48   6 2.49  60 2.49  54 2.49  36 2.50  20 2.50  50 2.50
                             7 2.51  18 2.51  56 2.52  61 2.54
  23  0.751  0.501  0.286-  38 2.43  59 2.44  53 2.47  39 2.48  12 2.49  33 2.50  26 2.51  19 2.52
                            62 2.52   9 2.52  58 2.53  25 2.57
  24  0.584  0.416  0.096-  13 2.49  62 2.49  57 2.50  10 2.51  56 2.51  34 2.51  37 2.52  54 2.53
                            59 2.54
  25  0.581  0.419  0.386-  65 1.88  35 2.42  55 2.43  53 2.46  38 2.51  11 2.51   9 2.56  58 2.57
                            23 2.57  14 2.59
  26  0.001  0.752  0.286-  38 2.44  49 2.46  44 2.47   2 2.49  39 2.50  27 2.50  33 2.50   1 2.51
                            23 2.51  19 2.52  41 2.52  29 2.53
  27  0.250  0.750  0.286-  32 2.46  45 2.46  61 2.47  44 2.48  19 2.49  26 2.50   3 2.50  52 2.51
                            30 2.52   2 2.52  29 2.53  43 2.54
  28  0.084  0.668  0.095-  61 2.47  39 2.50  40 2.50  37 2.50  31 2.50  42 2.50  57 2.51  44 2.51
                            20 2.51
  29  0.082  0.663  0.383-  66 1.84  21 2.45  58 2.46  19 2.49  32 2.50  38 2.51  26 2.53  27 2.53
                            43 2.56  41 2.57
  30  0.501  0.750  0.287-  32 2.43  48 2.47  45 2.48   4 2.49  53 2.50  33 2.50  36 2.51  64 2.51
                             3 2.52  52 2.52  27 2.52  35 2.55
  31  0.333  0.667  0.094-  61 2.47  42 2.50  54 2.50  28 2.50  63 2.50  34 2.51  36 2.52  45 2.52
                            20 2.52
  32  0.333  0.666  0.379-  52 2.42  30 2.43  27 2.46  29 2.50  64 2.51  35 2.52  21 2.52  43 2.52
                            55 2.52
  33  0.751  0.750  0.286-  38 2.44  49 2.46  53 2.47  48 2.47  62 2.47  23 2.50  26 2.50  30 2.50
                             1 2.50   4 2.51  47 2.54  35 2.57
  34  0.583  0.667  0.095-  62 2.47  36 2.50  63 2.50  46 2.51  31 2.51  37 2.51  54 2.51  24 2.51
                            48 2.53
  35  0.581  0.661  0.385-  68 1.87  25 2.42  55 2.44  53 2.46  38 2.51  32 2.52  30 2.55  33 2.57
                            64 2.57  47 2.58
  36  0.417  0.582  0.191-  54 2.47  22 2.50  34 2.50  62 2.50  30 2.51  45 2.51  56 2.51  48 2.51
                            61 2.51  31 2.52  52 2.52  53 2.55
  37  0.834  0.668  0.095-  62 2.47  40 2.50  57 2.50  39 2.50  28 2.50  46 2.51  49 2.51  34 2.51
                            24 2.52
  38  0.834  0.666  0.379-  23 2.43  26 2.44  33 2.44  58 2.50  25 2.51  29 2.51  41 2.51  35 2.51
                            47 2.51
  39  0.917  0.583  0.191-  23 2.48  57 2.49  19 2.49  28 2.50  37 2.50  26 2.50  61 2.50  49 2.51
                            59 2.51  62 2.51  44 2.51  60 2.56
  40  0.083  0.917  0.095-  50 2.49  44 2.49  37 2.50  28 2.50   7 2.50  10 2.51  49 2.51  46 2.51
                            42 2.52
  41  0.081  0.919  0.384-  66 1.83   8 2.44  47 2.44   1 2.49  11 2.51  38 2.51  26 2.52   2 2.55
                            43 2.56  29 2.57
  42  0.334  0.917  0.095-  51 2.48  13 2.50  63 2.50  31 2.50  44 2.50  28 2.50  10 2.51  45 2.51
                            40 2.52
  43  0.337  0.919  0.384-  66 1.83  14 2.43  64 2.46   3 2.47  32 2.52  11 2.52  27 2.54   2 2.55
                            29 2.56  41 2.56
  44  0.167  0.835  0.191-   2 2.46  51 2.47  26 2.47  27 2.48  61 2.49  49 2.49  40 2.49  42 2.50
                            50 2.50  28 2.51  39 2.51  45 2.53
  45  0.417  0.832  0.192-  27 2.46  61 2.47  51 2.47  30 2.48  48 2.49  63 2.50   3 2.50  17 2.50
                            36 2.51  42 2.51  31 2.52  44 2.53
  46  0.832  0.917  0.096-  18 2.48  48 2.49  15 2.49  63 2.50  49 2.50   7 2.51  34 2.51  37 2.51
                            40 2.51
  47  0.838  0.919  0.384-  68 1.85   8 2.42  41 2.44   1 2.47  16 2.50  38 2.51  33 2.54   4 2.54
                            64 2.57  35 2.58
  48  0.666  0.833  0.192-   4 2.46  62 2.47  33 2.47  30 2.47  45 2.49  46 2.49  18 2.50  63 2.50
                            17 2.51  36 2.51  49 2.52  34 2.53
  49  0.917  0.833  0.192-  26 2.46  33 2.46  62 2.46  50 2.47   1 2.49  44 2.49  18 2.50  46 2.50
                            39 2.51  40 2.51  37 2.51  48 2.52
  50  0.162  0.082  0.191-  18 2.46   7 2.47   2 2.47  49 2.47   1 2.48  40 2.49  44 2.50  22 2.50
                            10 2.51   6 2.52  56 2.53  51 2.57
  51  0.416  0.078  0.192-   2 2.46  44 2.47  45 2.47   3 2.47  42 2.48  17 2.48  13 2.48   9 2.51
                            10 2.52  59 2.54  56 2.54  50 2.57
  52  0.249  0.499  0.288-  32 2.42   6 2.48  22 2.48  19 2.49   5 2.50  21 2.51  27 2.51  36 2.52
                            30 2.52  61 2.55  53 2.55  55 2.57
  53  0.506  0.503  0.290-  35 2.46  25 2.46  33 2.47  23 2.47  30 2.50   9 2.50   6 2.53  55 2.54
                            56 2.54  62 2.55  36 2.55  52 2.55
  54  0.331  0.417  0.096-  36 2.47  22 2.49  31 2.50   7 2.50  20 2.51  34 2.51  10 2.52  56 2.53
                            24 2.53
  55  0.337  0.417  0.387-  67 1.84  25 2.43  35 2.44  11 2.49  32 2.52  53 2.54   6 2.55  52 2.57
                             8 2.58  21 2.59
  56  0.416  0.331  0.193-   9 2.46   6 2.47  10 2.50  24 2.51  36 2.51  59 2.51  22 2.52  50 2.53
                            54 2.53  53 2.54  51 2.54  62 2.56
  57  0.834  0.418  0.094-  20 2.49  39 2.49  24 2.50  37 2.50  28 2.51  13 2.52  15 2.53  59 2.56
                            60 2.59
  58  0.837  0.419  0.384-  65 1.83  21 2.44  29 2.46  12 2.49  38 2.50  19 2.51  23 2.53  16 2.53
                            25 2.57  14 2.59
  59  0.667  0.332  0.194-  23 2.44   9 2.44  12 2.45  17 2.49  60 2.51  39 2.51  56 2.51  13 2.52
                            51 2.54  24 2.54  57 2.56  62 2.57
  60  0.914  0.327  0.194-   5 2.43  12 2.46  18 2.47  17 2.47  19 2.48  22 2.49  15 2.49  59 2.51
                            20 2.53  39 2.56  57 2.59  61 2.59
  61  0.169  0.588  0.189-  45 2.47  28 2.47  31 2.47  27 2.47  20 2.48  44 2.49  39 2.50  36 2.51
                            19 2.52  22 2.54  52 2.55  60 2.59
  62  0.670  0.589  0.190-  49 2.46  48 2.47  37 2.47  33 2.47  34 2.47  24 2.49  36 2.50  39 2.51
                            23 2.52  53 2.55  56 2.56  59 2.57
  63  0.583  0.917  0.096-  46 2.50  45 2.50  42 2.50  48 2.50  31 2.50  34 2.50  17 2.51  15 2.51
                            13 2.52
  64  0.582  0.918  0.383-  68 1.83  14 2.44  43 2.46   3 2.47  16 2.49   4 2.51  30 2.51  32 2.51
                            47 2.57  35 2.57
  65  0.670  0.332  0.437-  58 1.83  14 1.86  25 1.88
  66  0.167  0.833  0.435-  43 1.83  41 1.83  29 1.84
  67  0.164  0.332  0.437-  55 1.84  21 1.86   8 1.86
  68  0.667  0.837  0.436-  64 1.83  47 1.85  35 1.87
 

IMPORTANT INFORMATION: All symmetrisations will be switched off!
NOSYMM: (Re-)initialisation of all symmetry stuff for point group C_1.

 
 

Automatic generation of k-mesh.
 generate k-points for:    3    3    1
Space group operators:
 irot       det(A)        alpha          n_x          n_y          n_z        tau_x        tau_y        tau_z
    1     1.000000     0.000000     1.000000     0.000000     0.000000     0.000000     0.000000     0.000000
 
 Subroutine IBZKPT returns following result:
 ===========================================
 
 Found      5 irreducible k-points:
 
 Following reciprocal coordinates:
            Coordinates               Weight
  0.000000  0.000000  0.000000      1.000000
  0.333333  0.000000  0.000000      2.000000
  0.000000  0.333333  0.000000      2.000000
  0.333333  0.333333  0.000000      2.000000
 -0.333333  0.333333  0.000000      2.000000
 
 Following cartesian coordinates:
            Coordinates               Weight
  0.000000  0.000000  0.000000      1.000000
  0.033244  0.019194  0.000000      2.000000
  0.000000  0.038387  0.000000      2.000000
  0.033244  0.057581  0.000000      2.000000
 -0.033244  0.019194  0.000000      2.000000
 
 TETIRR: Found     24 inequivalent tetrahedra from       54


--------------------------------------------------------------------------------------------------------




 Dimension of arrays:
   k-points           NKPTS =      5   k-points in BZ     NKDIM =      5   number of bands    NBANDS=    414
   number of dos      NEDOS =    301   number of ions     NIONS =     68
   non local maximal  LDIM  =      6   non local SUM 2l+1 LMDIM =     18
   total plane-waves  NPLWV = ******
   max r-space proj   IRMAX =   8439   max aug-charges    IRDMAX=  19969
   dimension x,y,z NGX =    80 NGY =   80 NGZ =  160
   dimension x,y,z NGXF=   160 NGYF=  160 NGZF=  320
   support grid    NGXF=   160 NGYF=  160 NGZF=  320
   ions per type =              49  15   4
   NGX,Y,Z   is equivalent  to a cutoff of  13.26, 13.26, 12.55 a.u.
   NGXF,Y,Z  is equivalent  to a cutoff of  26.53, 26.53, 25.11 a.u.

 SYSTEM =  SQS-NiFe                                
 POSCAR =  POSCAR                                  

 Startparameter for this run:
   NWRITE =      2    write-flag & timer
   PREC   = accura    normal or accurate (medium, high low for compatibility)
   ISTART =      1    job   : 0-new  1-cont  2-samecut
   ICHARG =      1    charge: 1-file 2-atom 10-const
   ISPIN  =      2    spin polarized calculation?
   LNONCOLLINEAR =      F non collinear calculations
   LSORBIT =      F    spin-orbit coupling
   INIWAV =      1    electr: 0-lowe 1-rand  2-diag
   LASPH  =      F    aspherical Exc in radial PAW
   METAGGA=      F    non-selfconsistent MetaGGA calc.

 Electronic Relaxation 1
   ENCUT  =  520.0 eV  38.22 Ry    6.18 a.u.  18.64 18.64 39.40*2*pi/ulx,y,z
   ENINI  =  520.0     initial cutoff
   ENAUG  =  605.4 eV  augmentation charge cutoff
   NELM   =    200;   NELMIN=  2; NELMDL=  0     # of ELM steps 
   EDIFF  = 0.1E-05   stopping-criterion for ELM
   LREAL  =      T    real-space projection
   NLSPLINE    = F    spline interpolate recip. space projectors
   LCOMPAT=      F    compatible to vasp.4.4
   GGA_COMPAT  = T    GGA compatible to vasp.4.4-vasp.4.6
   LMAXPAW     = -100 max onsite density
   LMAXMIX     =    2 max onsite mixed and CHGCAR
   VOSKOWN=      0    Vosko Wilk Nusair interpolation
   ROPT   =   -0.00025  -0.00025  -0.00025
 Ionic relaxation
   EDIFFG = -.2E-01   stopping-criterion for IOM
   NSW    =      0    number of steps for IOM
   NBLOCK =      1;   KBLOCK =      1    inner block; outer block 
   IBRION =     -1    ionic relax: 0-MD 1-quasi-New 2-CG
   NFREE  =      0    steps in history (QN), initial steepest desc. (CG)
   ISIF   =      2    stress and relaxation
   IWAVPR =     10    prediction:  0-non 1-charg 2-wave 3-comb
   ISYM   =      0    0-nonsym 1-usesym 2-fastsym
   LCORR  =      T    Harris-Foulkes like correction to forces

   POTIM  = 0.5000    time-step for ionic-motion
   TEIN   =    0.0    initial temperature
   TEBEG  =    0.0;   TEEND  =   0.0 temperature during run
   SMASS  =  -3.00    Nose mass-parameter (am)
   estimated Nose-frequenzy (Omega)   =  0.10E-29 period in steps =****** mass=  -0.230E-26a.u.
   SCALEE = 1.0000    scale energy and forces
   NPACO  =    256;   APACO  = 16.0  distance and # of slots for P.C.
   PSTRESS=    0.0 pullay stress

  Mass of Ions in am
   POMASS =  58.69 55.85 16.00
  Ionic Valenz
   ZVAL   =  10.00  8.00  6.00
  Atomic Wigner-Seitz radii
   RWIGS  =  -1.00 -1.00 -1.00
  virtual crystal weights 
   VCA    =   1.00  1.00  1.00
   NELECT =     634.0000    total number of electrons
   NUPDOWN=      -1.0000    fix difference up-down

 DOS related values:
   EMIN   =  10.00;   EMAX   =-10.00  energy-range for DOS
   EFERMI =   0.00
   ISMEAR =    -5;   SIGMA  =   0.20  broadening in eV -4-tet -1-fermi 0-gaus

 Electronic relaxation 2 (details)
   IALGO  =     68    algorithm
   LDIAG  =      T    sub-space diagonalisation (order eigenvalues)
   LSUBROT=      F    optimize rotation matrix (better conditioning)
   TURBO    =      0    0=normal 1=particle mesh
   IRESTART =      0    0=no restart 2=restart with 2 vectors
   NREBOOT  =      0    no. of reboots
   NMIN     =      0    reboot dimension
   EREF     =   0.00    reference energy to select bands
   IMIX   =      4    mixing-type and parameters
     AMIX     =   0.40;   BMIX     =  1.00
     AMIX_MAG =   1.60;   BMIX_MAG =  1.00
     AMIN     =   0.10
     WC   =   100.;   INIMIX=   1;  MIXPRE=   1;  MAXMIX= -45

 Intra band minimization:
   WEIMIN = 0.0000     energy-eigenvalue tresh-hold
   EBREAK =  0.60E-09  absolut break condition
   DEPER  =   0.30     relativ break condition  

   TIME   =   0.40     timestep for ELM

  volume/ion in A,a.u.               =      27.13       183.09
  Fermi-wavevector in a.u.,A,eV,Ry     =   1.146698  2.166945 17.890514  1.314916
  Thomas-Fermi vector in A             =   2.283381
 
 Write flags
   LWAVE        =      T    write WAVECAR
   LDOWNSAMPLE  =      F    k-point downsampling of WAVECAR
   LCHARG       =      T    write CHGCAR
   LVTOT        =      F    write LOCPOT, total local potential
   LVHAR        =      F    write LOCPOT, Hartree potential only
   LELF         =      F    write electronic localiz. function (ELF)
   LORBIT       =     11    0 simple, 1 ext, 2 COOP (PROOUT), +10 PAW based schemes


 Dipole corrections
   LMONO  =      F    monopole corrections only (constant potential shift)
   LDIPOL =      T    correct potential (dipole corrections)
   IDIPOL =      3    1-x, 2-y, 3-z, 4-all directions 
   EPSILON=  1.0000000 bulk dielectric constant

 Exchange correlation treatment:
   GGA     =    --    GGA type
   LEXCH   =     8    internal setting for exchange type
   VOSKOWN=      0    Vosko Wilk Nusair interpolation
   LHFCALC =     F    Hartree Fock is set to
   LHFONE  =     F    Hartree Fock one center treatment
   AEXX    =    0.0000 exact exchange contribution

 Linear response parameters
   LEPSILON=     F    determine dielectric tensor
   LRPA    =     F    only Hartree local field effects (RPA)
   LNABLA  =     F    use nabla operator in PAW spheres
   LVEL    =     F    velocity operator in full k-point grid
   LINTERFAST=   F  fast interpolation
   KINTER  =     0    interpolate to denser k-point grid
   CSHIFT  =0.1000    complex shift for real part using Kramers Kronig
   OMEGAMAX=  -1.0    maximum frequency
   DEG_THRESHOLD= 0.2000000E-02 threshold for treating states as degnerate
   RTIME   =   -0.100 relaxation time in fs
  (WPLASMAI=    0.000 imaginary part of plasma frequency in eV, 0.658/RTIME)
   DFIELD  = 0.0000000 0.0000000 0.0000000 field for delta impulse in time
 
 Orbital magnetization related:
   ORBITALMAG=     F  switch on orbital magnetization
   LCHIMAG   =     F  perturbation theory with respect to B field
   DQ        =  0.001000  dq finite difference perturbation B field
   LLRAUG    =     F  two centre corrections for induced B field



--------------------------------------------------------------------------------------------------------


 Static calculation
 charge density and potential will be updated during run
 spin polarized calculation
 RMM-DIIS sequential band-by-band and
  variant of blocked Davidson during initial phase
 perform sub-space diagonalisation
    before iterative eigenvector-optimisation
 modified Broyden-mixing scheme, WC =      100.0
 initial mixing is a Kerker type mixing with AMIX =  0.4000 and BMIX =      1.0000
 Hartree-type preconditioning will be used
 using additional bands           97
 real space projection scheme for non local part
 use partial core corrections
 calculate Harris-corrections to forces 
   (improved forces if not selfconsistent)
 use gradient corrections 
 use of overlap-Matrix (Vanderbilt PP)
 Fermi weights with tetrahedron method with Bloechl corrections


--------------------------------------------------------------------------------------------------------


  energy-cutoff  :      520.00
  volume of cell :     1844.87
      direct lattice vectors                 reciprocal lattice vectors
    10.026770000  0.000000000  0.000000000     0.099733015  0.057580883  0.000000000
    -5.013385000  8.683437540  0.000000000     0.000000000  0.115161766  0.000000000
     0.000000000  0.000000000 21.189180000     0.000000000  0.000000000  0.047193898

  length of vectors
    10.026770000 10.026770002 21.189180000     0.115161766  0.115161766  0.047193898


 
 old parameters found on file WAVECAR:
  energy-cutoff  :      520.00
  volume of cell :     1844.87
      direct lattice vectors                 reciprocal lattice vectors
    10.026770000  0.000000000  0.000000000     0.099733015  0.057580883  0.000000000
    -5.013385000  8.683437540  0.000000000     0.000000000  0.115161766  0.000000000
     0.000000000  0.000000000 21.189180000     0.000000000  0.000000000  0.047193898

  length of vectors

 
 k-points in units of 2pi/SCALE and weight: read from INCAR                         
   0.00000000  0.00000000  0.00000000       0.111
   0.03324434  0.01919363  0.00000000       0.222
   0.00000000  0.03838726  0.00000000       0.222
   0.03324434  0.05758088  0.00000000       0.222
  -0.03324434  0.01919363  0.00000000       0.222
 
 k-points in reciprocal lattice and weights: read from INCAR                         
   0.00000000  0.00000000  0.00000000       0.111
   0.33333333  0.00000000  0.00000000       0.222
   0.00000000  0.33333333  0.00000000       0.222
   0.33333333  0.33333333  0.00000000       0.222
  -0.33333333  0.33333333  0.00000000       0.222
 
 position of ions in fractional coordinates (direct lattice) 
   0.99900080  0.00049799  0.28775797
   0.24920712  0.00113919  0.28544962
   0.49920634  0.99978892  0.28797614
   0.74814588  0.99896887  0.28665822
   0.99941608  0.24887449  0.28720185
   0.25143105  0.25249219  0.28753252
   0.08288200  0.16633200  0.09567600
   0.07966166  0.16073233  0.38502561
   0.49919238  0.24977084  0.28676779
   0.33293900  0.16685800  0.09574200
   0.33227458  0.16719357  0.37915739
   0.75029135  0.25186343  0.28835609
   0.58230700  0.16720100  0.09670300
   0.57937795  0.16026111  0.38441549
   0.83403200  0.16672400  0.09645100
   0.83210181  0.16423574  0.37940494
   0.66558100  0.08305500  0.19258300
   0.91639700  0.08203100  0.19204900
   0.00214224  0.50114292  0.28649130
   0.08092200  0.41609700  0.09594800
   0.07974590  0.41758495  0.38401078
   0.16611800  0.33395200  0.19207500
   0.75121258  0.50099564  0.28631171
   0.58357300  0.41617200  0.09593300
   0.58073669  0.41942054  0.38565608
   0.00121427  0.75168968  0.28644250
   0.24968440  0.74991381  0.28567009
   0.08375800  0.66810400  0.09479700
   0.08239383  0.66315187  0.38342099
   0.50082243  0.74952211  0.28708065
   0.33297400  0.66727700  0.09438800
   0.33295530  0.66575820  0.37905382
   0.75052418  0.74960091  0.28620350
   0.58298100  0.66668200  0.09450900
   0.58111551  0.66116182  0.38549054
   0.41661000  0.58200200  0.19081700
   0.83395900  0.66770600  0.09497900
   0.83365358  0.66583242  0.37903036
   0.91708300  0.58323900  0.19079400
   0.08291700  0.91685800  0.09518600
   0.08149457  0.91852791  0.38397066
   0.33420600  0.91705400  0.09538200
   0.33683088  0.91858221  0.38363751
   0.16670900  0.83524200  0.19136500
   0.41703500  0.83214900  0.19205900
   0.83233100  0.91715000  0.09633700
   0.83833387  0.91856866  0.38421702
   0.66623900  0.83337000  0.19234100
   0.91705900  0.83319500  0.19216200
   0.16168500  0.08211500  0.19130600
   0.41607500  0.07807100  0.19177300
   0.24906318  0.49884767  0.28778992
   0.50574883  0.50268997  0.28955114
   0.33134100  0.41714300  0.09577600
   0.33741431  0.41724983  0.38730809
   0.41638400  0.33144300  0.19252200
   0.83354800  0.41839000  0.09448800
   0.83670954  0.41868078  0.38377849
   0.66732400  0.33240600  0.19435500
   0.91446400  0.32695500  0.19396500
   0.16914200  0.58833400  0.18947800
   0.66961600  0.58928900  0.18986000
   0.58310400  0.91651500  0.09583500
   0.58156857  0.91792676  0.38327712
   0.67031133  0.33199075  0.43664812
   0.16701596  0.83345956  0.43497532
   0.16394800  0.33228149  0.43746796
   0.66723881  0.83720099  0.43644009
 
 position of ions in cartesian coordinates  (Angst):
  10.01425461  0.00432428  6.09735543
   2.49303130  0.00989206  6.04844333
  -0.00689963  8.68160463  6.10197825
   2.49327112  8.67448377  6.07405258
   8.77321153  2.16108612  6.08557173
   1.25520075  2.19250017  6.09257842
  -0.00284760  1.44433353  2.02729599
  -0.00706394  1.39570919  8.15837693
   3.75308977  2.16886951  6.07637431
   2.50177938  1.44890102  2.02869447
   2.49343501  1.45181493  8.03403423
   6.26031044  2.18704037  6.11002913
   5.00041537  1.45187944  2.04905727
   5.00583879  1.39161731  8.14544896
   7.52679544  1.44773744  2.04371760
   7.51991646  1.42613079  8.03927955
   6.25724091  0.72120290  4.08067585
   8.77724896  0.71231106  4.06936083
  -2.49094264  4.35164321  6.07051568
  -1.27466818  3.61315231  2.03305944
  -1.29392039  3.62607287  8.13687359
  -0.00860297  2.89985133  4.06991175
   5.02055173  4.35036438  6.06671028
   3.76492179  3.61380357  2.03274160
   3.72019663  3.64201203  8.17173599
  -3.75633450  6.52725035  6.06948170
  -1.25607857  6.51182970  6.05311490
  -2.50964037  5.80143935  2.00867070
  -2.49849166  5.75843782  8.12437632
   1.26398837  6.50842847  6.08300367
  -0.00666279  5.79425815  2.00000432
   0.00076401  5.78106973  8.03183959
   3.76729538  6.50911269  6.06441752
   2.50308286  5.78909151  2.00256821
   2.51205283  5.74115739  8.16822836
   1.25945255  5.05377802  4.04325576
   5.01444784  5.79798335  2.01252713
   5.02077845  5.78171420  8.03134258
   6.27137866  5.06451943  4.04276841
  -3.76517246  7.96147918  2.01691329
  -3.78780667  7.97597969  8.13602340
  -1.24653807  7.96318113  2.02106637
  -1.22788051  7.97645121  8.12896426
  -2.51583691  7.25277174  4.05486743
   0.00963071  7.22591387  4.06957272
   3.74756545  7.96401474  2.04130203
   3.80064259  7.97633356  8.14124354
   2.50222056  7.23651634  4.07554807
   5.01801235  7.23499674  4.07175521
   1.20950420  0.71304047  4.05361727
   3.78048835  0.67792465  4.06351262
  -0.00361624  4.33171258  6.09803240
   2.55084889  4.36507692  6.13535120
   1.23098154  3.62223519  2.02941490
   1.29134166  3.62316287  8.20674081
   2.51333524  2.87806459  4.07938331
   6.26024393  3.63306343  2.00212324
   6.29048623  3.63558836  8.13195154
   5.02462501  2.88642674  4.11822308
   7.52996891  2.83909332  4.10995930
  -1.25359692  5.10876154  4.01488345
   3.75975299  5.11705422  4.02297771
   1.25180714  7.95850076  2.03066507
   1.22933407  7.97075966  8.12132782
   5.05666011  2.88282090  9.25221557
  -2.50382303  7.23729404  9.21677032
  -0.02198612  2.88534553  9.26958739
   2.49303919  7.26978252  9.24780758
 


--------------------------------------------------------------------------------------------------------


 k-point  1 :   0.0000 0.0000 0.0000  plane waves:   49741
 k-point  2 :   0.3333 0.0000 0.0000  plane waves:   49680
 k-point  3 :   0.0000 0.3333 0.0000  plane waves:   49680
 k-point  4 :   0.3333 0.3333 0.0000  plane waves:   49662
 k-point  5 :  -0.3333 0.3333 0.0000  plane waves:   49680

 maximum and minimum number of plane-waves per node :      2099     2053

 maximum number of plane-waves:     49741
 maximum index in each direction: 
   IXMAX=   18   IYMAX=   18   IZMAX=   39
   IXMIN=  -18   IYMIN=  -18   IZMIN=  -39


 real space projection operators:
  total allocation   :      64950.36 KBytes
  max/ min on nodes  :       3282.28       2390.39


 parallel 3D FFT for wavefunctions:
    minimum data exchange during FFTs selected (reduces bandwidth)
 parallel 3D FFT for charge:
    minimum data exchange during FFTs selected (reduces bandwidth)


 total amount of memory used by VASP MPI-rank0   114930. kBytes
=======================================================================

   base      :      30000. kBytes
   nonlr-proj:      13713. kBytes
   fftplans  :       6402. kBytes
   grid      :      17692. kBytes
   one-center:         93. kBytes
   wavefun   :      47030. kBytes
 
     INWAV:  cpu time   11.4252: real time   11.7860
 Broyden mixing: mesh for mixing (old mesh)
   NGX = 37   NGY = 37   NGZ = 79
  (NGX  =160   NGY  =160   NGZ  =320)
  gives a total of 108151 points

 initial charge density was supplied:
 number of electron     634.0000079 magnetization      73.3502008
 keeping initial charge density in first step


--------------------------------------------------------------------------------------------------------


 Maximum index for non-local projection operator          764
 Maximum index for augmentation-charges         1117 (set IRDMAX)


--------------------------------------------------------------------------------------------------------


 First call to EWALD:  gamma=   0.145
 Maximum number of real-space cells 4x 4x 2
 Maximum number of reciprocal cells 2x 2x 4

    FEWALD:  cpu time    0.0035: real time    0.0035


--------------------------------------- Iteration      1(   1)  ---------------------------------------


    POTLOK:  cpu time    0.4291: real time    0.4412
    SETDIJ:  cpu time    0.0254: real time    0.0254
     EDDAV:  cpu time   41.6333: real time   41.6522
 BZINTS: Fermi energy:  0.212780;634.000000 electrons
         Band energy:***********;  BLOECHL correction: -0.047760
       DOS:  cpu time    0.0533: real time    0.0533
    CHARGE:  cpu time    1.0706: real time    1.0707
    MIXING:  cpu time    0.0066: real time    0.0064
    --------------------------------------------
      LOOP:  cpu time   43.2182: real time   43.2493

 eigenvalue-minimisations  :  8586
 total energy-change (2. order) :-0.4027749E+03  (-0.6100980E-02)
 number of electron     634.0000078 magnetization      73.3694365
 augmentation part      367.2227601 magnetization      63.2412280

 DIPCOR: dipole corrections for dipol
 direction  3 min pos   248,
 dipolmoment           0.000000      0.000000      0.364492 electrons x Angstroem
 Tr[quadrupol]    -10317.663957

 energy correction for charged system         0.000000 eV
 dipol+quadrupol energy correction           -0.006516 eV
 added-field ion interaction         11.666786 eV  (added to PSCEN)


 Broyden mixing:
  rms(total) = 0.80927E-01    rms(broyden)= 0.80802E-01
  rms(prec ) = 0.84982E-01
  weight for this iteration     100.00

 Free energy of the ion-electron system (eV)
  ---------------------------------------------------
  alpha Z        PSCENC =      1347.61481916
  Ewald energy   TEWEN  =    220965.69853201
  -Hartree energ DENC   =   -282869.00213921
  -exchange      EXHF   =         0.00000000
  -V(xc)+E(xc)   XCENC  =      1680.66799135
  PAW double counting   =     67973.44259216   -71476.50771202
  entropy T*S    EENTRO =         0.00000000
  eigenvalues    EBANDS =     -1474.68620264
  atomic energy  EATOM  =     63449.99720736
  Solvation  Ediel_sol  =         0.00000000
  ---------------------------------------------------
  free energy    TOTEN  =      -402.77491182 eV

  energy without entropy =     -402.77491182  energy(sigma->0) =     -402.77491182


--------------------------------------------------------------------------------------------------------




--------------------------------------- Iteration      1(   2)  ---------------------------------------


    POTLOK:  cpu time    0.4300: real time    0.4449
    SETDIJ:  cpu time    0.0254: real time    0.0254
    EDDIAG:  cpu time    5.8867: real time    5.8887
  RMM-DIIS:  cpu time   21.4364: real time   21.4457
    ORTHCH:  cpu time    1.6351: real time    1.6358
 BZINTS: Fermi energy:  0.226992;634.000000 electrons
         Band energy:***********;  BLOECHL correction: -0.048503
       DOS:  cpu time    0.0513: real time    0.0513
    CHARGE:  cpu time    1.0669: real time    1.0670
    MIXING:  cpu time    0.0066: real time    0.0065
    --------------------------------------------
      LOOP:  cpu time   30.5384: real time   30.5652

 eigenvalue-minimisations  :  8475
 total energy-change (2. order) : 0.6994193E-02  (-0.1142765E-01)
 number of electron     634.0000079 magnetization      73.3709454
 augmentation part      367.3700624 magnetization      63.2269162

 DIPCOR: dipole corrections for dipol
 direction  3 min pos   241,
 dipolmoment           0.000000      0.000000      0.386405 electrons x Angstroem
 Tr[quadrupol]    -10317.395004

 energy correction for charged system         0.000000 eV
 dipol+quadrupol energy correction           -0.007323 eV
 added-field ion interaction          1.230072 eV  (added to PSCEN)


 Broyden mixing:
  rms(total) = 0.42804E+00    rms(broyden)= 0.42801E+00
  rms(prec ) = 0.49037E+00
  weight for this iteration     100.00

 eigenvalues of (default mixing * dielectric matrix)
  average eigenvalue GAMMA=   0.1484
  0.1484

 Free energy of the ion-electron system (eV)
  ---------------------------------------------------
  alpha Z        PSCENC =      1337.17729815
  Ewald energy   TEWEN  =    220965.69853201
  -Hartree energ DENC   =   -282869.45787542
  -exchange      EXHF   =         0.00000000
  -V(xc)+E(xc)   XCENC  =      1680.64853257
  PAW double counting   =     67971.84308034   -71474.60082425
  entropy T*S    EENTRO =         0.00000000
  eigenvalues    EBANDS =     -1464.07386840
  atomic energy  EATOM  =     63449.99720736
  Solvation  Ediel_sol  =         0.00000000
  ---------------------------------------------------
  free energy    TOTEN  =      -402.76791763 eV

  energy without entropy =     -402.76791763  energy(sigma->0) =     -402.76791763


--------------------------------------------------------------------------------------------------------




--------------------------------------- Iteration      1(   3)  ---------------------------------------


    POTLOK:  cpu time    0.4303: real time    0.4448
    SETDIJ:  cpu time    0.0258: real time    0.0257
    EDDIAG:  cpu time    5.8821: real time    5.8839
  RMM-DIIS:  cpu time   21.8982: real time   21.9084
    ORTHCH:  cpu time    1.6244: real time    1.6247
 BZINTS: Fermi energy:  0.226007;634.000000 electrons
         Band energy:***********;  BLOECHL correction: -0.045222
       DOS:  cpu time    0.0510: real time    0.0511
    CHARGE:  cpu time    1.0714: real time    1.0717
    MIXING:  cpu time    0.0067: real time    0.0066
    --------------------------------------------
      LOOP:  cpu time   30.9899: real time   31.0168

 eigenvalue-minimisations  :  8616
 total energy-change (2. order) : 0.4112015E-01  (-0.4930140E-02)
 number of electron     634.0000079 magnetization      73.3724731
 augmentation part      367.3380613 magnetization      63.2625341

 DIPCOR: dipole corrections for dipol
 direction  3 min pos   241,
 dipolmoment           0.000000      0.000000      0.340930 electrons x Angstroem
 Tr[quadrupol]    -10317.312461

 energy correction for charged system         0.000000 eV
 dipol+quadrupol energy correction           -0.005701 eV
 added-field ion interaction          1.085307 eV  (added to PSCEN)


 Broyden mixing:
  rms(total) = 0.28115E+00    rms(broyden)= 0.28109E+00
  rms(prec ) = 0.36290E+00
  weight for this iteration     100.00

 eigenvalues of (default mixing * dielectric matrix)
  average eigenvalue GAMMA=   0.1363
  0.2181  0.0545

 Free energy of the ion-electron system (eV)
  ---------------------------------------------------
  alpha Z        PSCENC =      1337.03415514
  Ewald energy   TEWEN  =    220965.69853201
  -Hartree energ DENC   =   -282867.47624684
  -exchange      EXHF   =         0.00000000
  -V(xc)+E(xc)   XCENC  =      1680.71039292
  PAW double counting   =     67972.83179207   -71475.79844071
  entropy T*S    EENTRO =         0.00000000
  eigenvalues    EBANDS =     -1465.72418943
  atomic energy  EATOM  =     63449.99720736
  Solvation  Ediel_sol  =         0.00000000
  ---------------------------------------------------
  free energy    TOTEN  =      -402.72679748 eV

  energy without entropy =     -402.72679748  energy(sigma->0) =     -402.72679748


--------------------------------------------------------------------------------------------------------




--------------------------------------- Iteration      1(   4)  ---------------------------------------


    POTLOK:  cpu time    0.4294: real time    0.4458
    SETDIJ:  cpu time    0.0254: real time    0.0255
    EDDIAG:  cpu time    5.8791: real time    5.8813
  RMM-DIIS:  cpu time   21.6135: real time   21.6236
    ORTHCH:  cpu time    1.6236: real time    1.6239
 BZINTS: Fermi energy:  0.232818;634.000000 electrons
         Band energy:***********;  BLOECHL correction: -0.048884
       DOS:  cpu time    0.0543: real time    0.0543
    CHARGE:  cpu time    1.0660: real time    1.0661
    MIXING:  cpu time    0.0068: real time    0.0067
    --------------------------------------------
      LOOP:  cpu time   30.6980: real time   30.7272

 eigenvalue-minimisations  :  8526
 total energy-change (2. order) : 0.2012630E-01  (-0.9023885E-03)
 number of electron     634.0000079 magnetization      73.3802367
 augmentation part      367.2686659 magnetization      63.2710589

 DIPCOR: dipole corrections for dipol
 direction  3 min pos   239,
 dipolmoment           0.000000      0.000000      0.373531 electrons x Angstroem
 Tr[quadrupol]    -10317.217815

 energy correction for charged system         0.000000 eV
 dipol+quadrupol energy correction           -0.006843 eV
 added-field ion interaction         -1.887200 eV  (added to PSCEN)


 Broyden mixing:
  rms(total) = 0.12496E+00    rms(broyden)= 0.12493E+00
  rms(prec ) = 0.14315E+00
  weight for this iteration     100.00

 eigenvalues of (default mixing * dielectric matrix)
  average eigenvalue GAMMA=   0.2201
  0.5062  0.1027  0.0515

 Free energy of the ion-electron system (eV)
  ---------------------------------------------------
  alpha Z        PSCENC =      1334.06050575
  Ewald energy   TEWEN  =    220965.69853201
  -Hartree energ DENC   =   -282868.16384348
  -exchange      EXHF   =         0.00000000
  -V(xc)+E(xc)   XCENC  =      1680.73913539
  PAW double counting   =     67973.66065450   -71476.77953929
  entropy T*S    EENTRO =         0.00000000
  eigenvalues    EBANDS =     -1461.91932343
  atomic energy  EATOM  =     63449.99720736
  Solvation  Ediel_sol  =         0.00000000
  ---------------------------------------------------
  free energy    TOTEN  =      -402.70667118 eV

  energy without entropy =     -402.70667118  energy(sigma->0) =     -402.70667118


--------------------------------------------------------------------------------------------------------




--------------------------------------- Iteration      1(   5)  ---------------------------------------


    POTLOK:  cpu time    0.4315: real time    0.4464
    SETDIJ:  cpu time    0.0255: real time    0.0254
    EDDIAG:  cpu time    5.8891: real time    5.8910
  RMM-DIIS:  cpu time   21.4498: real time   21.4599
    ORTHCH:  cpu time    1.6307: real time    1.6311
 BZINTS: Fermi energy:  0.236071;634.000000 electrons
         Band energy:***********;  BLOECHL correction: -0.047596
       DOS:  cpu time    0.0504: real time    0.0504
    CHARGE:  cpu time    1.0660: real time    1.0662
    MIXING:  cpu time    0.0068: real time    0.0068
    --------------------------------------------
      LOOP:  cpu time   30.5499: real time   30.5772

 eigenvalue-minimisations  :  8477
 total energy-change (2. order) :-0.9068903E-03  (-0.6707073E-03)
 number of electron     634.0000079 magnetization      73.3855864
 augmentation part      367.2266290 magnetization      63.2970106

 DIPCOR: dipole corrections for dipol
 direction  3 min pos   239,
 dipolmoment           0.000000      0.000000      0.359634 electrons x Angstroem
 Tr[quadrupol]    -10317.230358

 energy correction for charged system         0.000000 eV
 dipol+quadrupol energy correction           -0.006343 eV
 added-field ion interaction         -1.816988 eV  (added to PSCEN)


 Broyden mixing:
  rms(total) = 0.12423E+00    rms(broyden)= 0.12422E+00
  rms(prec ) = 0.14117E+00
  weight for this iteration     100.00

 eigenvalues of (default mixing * dielectric matrix)
  average eigenvalue GAMMA=   0.2074
  0.5538  0.0475  0.1142  0.1142

 Free energy of the ion-electron system (eV)
  ---------------------------------------------------
  alpha Z        PSCENC =      1334.13121768
  Ewald energy   TEWEN  =    220965.69853201
  -Hartree energ DENC   =   -282869.04995846
  -exchange      EXHF   =         0.00000000
  -V(xc)+E(xc)   XCENC  =      1680.75847191
  PAW double counting   =     67974.56435042   -71477.92873208
  entropy T*S    EENTRO =         0.00000000
  eigenvalues    EBANDS =     -1460.87866692
  atomic energy  EATOM  =     63449.99720736
  Solvation  Ediel_sol  =         0.00000000
  ---------------------------------------------------
  free energy    TOTEN  =      -402.70757807 eV

  energy without entropy =     -402.70757807  energy(sigma->0) =     -402.70757807


--------------------------------------------------------------------------------------------------------




--------------------------------------- Iteration      1(   6)  ---------------------------------------


    POTLOK:  cpu time    0.4310: real time    0.4467
    SETDIJ:  cpu time    0.0252: real time    0.0252
    EDDIAG:  cpu time    5.8923: real time    5.8938
  RMM-DIIS:  cpu time   21.5854: real time   21.5948
    ORTHCH:  cpu time    1.6252: real time    1.6254
 BZINTS: Fermi energy:  0.235090;634.000000 electrons
         Band energy:***********;  BLOECHL correction: -0.047846
       DOS:  cpu time    0.0522: real time    0.0523
    CHARGE:  cpu time    1.0671: real time    1.0673
    MIXING:  cpu time    0.0070: real time    0.0070
    --------------------------------------------
      LOOP:  cpu time   30.6854: real time   30.7125

 eigenvalue-minimisations  :  8526
 total energy-change (2. order) : 0.4070839E-02  (-0.3209911E-03)
 number of electron     634.0000079 magnetization      73.3926336
 augmentation part      367.2542766 magnetization      63.2944078

 DIPCOR: dipole corrections for dipol
 direction  3 min pos   239,
 dipolmoment           0.000000      0.000000      0.360738 electrons x Angstroem
 Tr[quadrupol]    -10317.238409

 energy correction for charged system         0.000000 eV
 dipol+quadrupol energy correction           -0.006382 eV
 added-field ion interaction         -1.822566 eV  (added to PSCEN)


 Broyden mixing:
  rms(total) = 0.52936E-01    rms(broyden)= 0.52930E-01
  rms(prec ) = 0.63107E-01
  weight for this iteration     100.00

 eigenvalues of (default mixing * dielectric matrix)
  average eigenvalue GAMMA=   0.2502
  0.4852  0.4852  0.1381  0.0487  0.0936

 Free energy of the ion-electron system (eV)
  ---------------------------------------------------
  alpha Z        PSCENC =      1334.12560014
  Ewald energy   TEWEN  =    220965.69853201
  -Hartree energ DENC   =   -282868.96204232
  -exchange      EXHF   =         0.00000000
  -V(xc)+E(xc)   XCENC  =      1680.72234573
  PAW double counting   =     67974.07093861   -71477.36058098
  entropy T*S    EENTRO =         0.00000000
  eigenvalues    EBANDS =     -1460.99550778
  atomic energy  EATOM  =     63449.99720736
  Solvation  Ediel_sol  =         0.00000000
  ---------------------------------------------------
  free energy    TOTEN  =      -402.70350723 eV

  energy without entropy =     -402.70350723  energy(sigma->0) =     -402.70350723


--------------------------------------------------------------------------------------------------------




--------------------------------------- Iteration      1(   7)  ---------------------------------------


    POTLOK:  cpu time    0.4289: real time    0.4463
    SETDIJ:  cpu time    0.0277: real time    0.0277
    EDDIAG:  cpu time    5.8496: real time    5.8516
  RMM-DIIS:  cpu time   21.6083: real time   21.6193
    ORTHCH:  cpu time    1.6273: real time    1.6276
 BZINTS: Fermi energy:  0.234055;634.000000 electrons
         Band energy:***********;  BLOECHL correction: -0.048005
       DOS:  cpu time    0.0491: real time    0.0490
    CHARGE:  cpu time    1.0626: real time    1.0627
    MIXING:  cpu time    0.0072: real time    0.0072
    --------------------------------------------
      LOOP:  cpu time   30.6607: real time   30.6915

 eigenvalue-minimisations  :  8558
 total energy-change (2. order) :-0.1206039E-03  (-0.1701689E-03)
 number of electron     634.0000079 magnetization      73.4074793
 augmentation part      367.2764152 magnetization      63.3001161

 DIPCOR: dipole corrections for dipol
 direction  3 min pos   239,
 dipolmoment           0.000000      0.000000      0.363149 electrons x Angstroem
 Tr[quadrupol]    -10317.230217

 energy correction for charged system         0.000000 eV
 dipol+quadrupol energy correction           -0.006468 eV
 added-field ion interaction         -1.834750 eV  (added to PSCEN)


 Broyden mixing:
  rms(total) = 0.57442E-01    rms(broyden)= 0.57439E-01
  rms(prec ) = 0.64015E-01
  weight for this iteration     100.00

 eigenvalues of (default mixing * dielectric matrix)
  average eigenvalue GAMMA=   0.3390
  0.8131  0.8131  0.1547  0.0486  0.1098  0.0949

 Free energy of the ion-electron system (eV)
  ---------------------------------------------------
  alpha Z        PSCENC =      1334.11333134
  Ewald energy   TEWEN  =    220965.69853201
  -Hartree energ DENC   =   -282868.35056306
  -exchange      EXHF   =         0.00000000
  -V(xc)+E(xc)   XCENC  =      1680.70011066
  PAW double counting   =     67973.57414954   -71476.76777260
  entropy T*S    EENTRO =         0.00000000
  eigenvalues    EBANDS =     -1461.66862309
  atomic energy  EATOM  =     63449.99720736
  Solvation  Ediel_sol  =         0.00000000
  ---------------------------------------------------
  free energy    TOTEN  =      -402.70362784 eV

  energy without entropy =     -402.70362784  energy(sigma->0) =     -402.70362784


--------------------------------------------------------------------------------------------------------




--------------------------------------- Iteration      1(   8)  ---------------------------------------


    POTLOK:  cpu time    0.4326: real time    0.4483
    SETDIJ:  cpu time    0.0269: real time    0.0269
    EDDIAG:  cpu time    5.8588: real time    5.8606
  RMM-DIIS:  cpu time   21.6015: real time   21.6123
    ORTHCH:  cpu time    1.6290: real time    1.6294
 BZINTS: Fermi energy:  0.234368;634.000000 electrons
         Band energy:***********;  BLOECHL correction: -0.048320
       DOS:  cpu time    0.0528: real time    0.0528
    CHARGE:  cpu time    1.0638: real time    1.0640
    MIXING:  cpu time    0.0076: real time    0.0075
    --------------------------------------------
      LOOP:  cpu time   30.6729: real time   30.7017

 eigenvalue-minimisations  :  8520
 total energy-change (2. order) : 0.8102991E-03  (-0.1195852E-03)
 number of electron     634.0000079 magnetization      73.4147540
 augmentation part      367.2708793 magnetization      63.3171526

 DIPCOR: dipole corrections for dipol
 direction  3 min pos   239,
 dipolmoment           0.000000      0.000000      0.365891 electrons x Angstroem
 Tr[quadrupol]    -10317.232423

 energy correction for charged system         0.000000 eV
 dipol+quadrupol energy correction           -0.006566 eV
 added-field ion interaction         -1.848601 eV  (added to PSCEN)


 Broyden mixing:
  rms(total) = 0.36956E-01    rms(broyden)= 0.36952E-01
  rms(prec ) = 0.40095E-01
  weight for this iteration     100.00

 eigenvalues of (default mixing * dielectric matrix)
  average eigenvalue GAMMA=   0.3408
  0.8852  0.8852  0.2261  0.0486  0.1329  0.1152  0.0925

 Free energy of the ion-electron system (eV)
  ---------------------------------------------------
  alpha Z        PSCENC =      1334.09938236
  Ewald energy   TEWEN  =    220965.69853201
  -Hartree energ DENC   =   -282868.40570550
  -exchange      EXHF   =         0.00000000
  -V(xc)+E(xc)   XCENC  =      1680.70442576
  PAW double counting   =     67973.56657025   -71476.76659278
  entropy T*S    EENTRO =         0.00000000
  eigenvalues    EBANDS =     -1461.59663700
  atomic energy  EATOM  =     63449.99720736
  Solvation  Ediel_sol  =         0.00000000
  ---------------------------------------------------
  free energy    TOTEN  =      -402.70281754 eV

  energy without entropy =     -402.70281754  energy(sigma->0) =     -402.70281754


--------------------------------------------------------------------------------------------------------




--------------------------------------- Iteration      1(   9)  ---------------------------------------


    POTLOK:  cpu time    0.4314: real time    0.4471
    SETDIJ:  cpu time    0.0270: real time    0.0270
    EDDIAG:  cpu time    5.8572: real time    5.8591
  RMM-DIIS:  cpu time   21.6345: real time   21.6478
    ORTHCH:  cpu time    1.6254: real time    1.6257
 BZINTS: Fermi energy:  0.229491;634.000000 electrons
         Band energy:***********;  BLOECHL correction: -0.048302
       DOS:  cpu time    0.0526: real time    0.0527
    CHARGE:  cpu time    1.0640: real time    1.0641
    MIXING:  cpu time    0.0084: real time    0.0084
    --------------------------------------------
      LOOP:  cpu time   30.7005: real time   30.7318

 eigenvalue-minimisations  :  8505
 total energy-change (2. order) : 0.3260975E-03  (-0.7985890E-04)
 number of electron     634.0000079 magnetization      73.4303058
 augmentation part      367.2651272 magnetization      63.3366665

 DIPCOR: dipole corrections for dipol
 direction  3 min pos   241,
 dipolmoment           0.000000      0.000000      0.365556 electrons x Angstroem
 Tr[quadrupol]    -10317.324657

 energy correction for charged system         0.000000 eV
 dipol+quadrupol energy correction           -0.006554 eV
 added-field ion interaction          1.163701 eV  (added to PSCEN)


 Broyden mixing:
  rms(total) = 0.25013E-01    rms(broyden)= 0.25009E-01
  rms(prec ) = 0.27506E-01
  weight for this iteration     100.00

 eigenvalues of (default mixing * dielectric matrix)
  average eigenvalue GAMMA=   0.3978
  1.0543  1.0543  0.5477  0.0486  0.1564  0.1246  0.1042  0.0926

 Free energy of the ion-electron system (eV)
  ---------------------------------------------------
  alpha Z        PSCENC =      1337.11169552
  Ewald energy   TEWEN  =    220965.69853201
  -Hartree energ DENC   =   -282868.35624752
  -exchange      EXHF   =         0.00000000
  -V(xc)+E(xc)   XCENC  =      1680.70875556
  PAW double counting   =     67973.65370170   -71476.89096404
  entropy T*S    EENTRO =         0.00000000
  eigenvalues    EBANDS =     -1464.62517203
  atomic energy  EATOM  =     63449.99720736
  Solvation  Ediel_sol  =         0.00000000
  ---------------------------------------------------
  free energy    TOTEN  =      -402.70249144 eV

  energy without entropy =     -402.70249144  energy(sigma->0) =     -402.70249144


--------------------------------------------------------------------------------------------------------




--------------------------------------- Iteration      1(  10)  ---------------------------------------


    POTLOK:  cpu time    0.4287: real time    0.4414
    SETDIJ:  cpu time    0.0271: real time    0.0271
    EDDIAG:  cpu time    5.8458: real time    5.8479
  RMM-DIIS:  cpu time   21.5358: real time   21.5462
    ORTHCH:  cpu time    1.6264: real time    1.6266
 BZINTS: Fermi energy:  0.227616;634.000000 electrons
         Band energy:***********;  BLOECHL correction: -0.048271
       DOS:  cpu time    0.0540: real time    0.0539
    CHARGE:  cpu time    1.0651: real time    1.0652
    MIXING:  cpu time    0.0079: real time    0.0079
    --------------------------------------------
      LOOP:  cpu time   30.5906: real time   30.6163

 eigenvalue-minimisations  :  8489
 total energy-change (2. order) : 0.4086614E-05  (-0.5434381E-04)
 number of electron     634.0000079 magnetization      73.4388956
 augmentation part      367.2661471 magnetization      63.3393496

 DIPCOR: dipole corrections for dipol
 direction  3 min pos   242,
 dipolmoment           0.000000      0.000000      0.364493 electrons x Angstroem
 Tr[quadrupol]    -10317.377006

 energy correction for charged system         0.000000 eV
 dipol+quadrupol energy correction           -0.006516 eV
 added-field ion interaction          2.661245 eV  (added to PSCEN)


 Broyden mixing:
  rms(total) = 0.29720E-01    rms(broyden)= 0.29718E-01
  rms(prec ) = 0.32538E-01
  weight for this iteration     100.00

 eigenvalues of (default mixing * dielectric matrix)
  average eigenvalue GAMMA=   0.3970
  1.1397  1.1397  0.6225  0.0486  0.1671  0.1449  0.1172  0.0922  0.1014

 Free energy of the ion-electron system (eV)
  ---------------------------------------------------
  alpha Z        PSCENC =      1338.60927760
  Ewald energy   TEWEN  =    220965.69853201
  -Hartree energ DENC   =   -282868.47400684
  -exchange      EXHF   =         0.00000000
  -V(xc)+E(xc)   XCENC  =      1680.69997034
  PAW double counting   =     67973.63924499   -71476.93203586
  entropy T*S    EENTRO =         0.00000000
  eigenvalues    EBANDS =     -1465.94067695
  atomic energy  EATOM  =     63449.99720736
  Solvation  Ediel_sol  =         0.00000000
  ---------------------------------------------------
  free energy    TOTEN  =      -402.70248735 eV

  energy without entropy =     -402.70248735  energy(sigma->0) =     -402.70248735


--------------------------------------------------------------------------------------------------------




--------------------------------------- Iteration      1(  11)  ---------------------------------------


    POTLOK:  cpu time    0.4445: real time    0.4454
    SETDIJ:  cpu time    0.0271: real time    0.0271
    EDDIAG:  cpu time    5.8482: real time    5.8493
  RMM-DIIS:  cpu time   21.6756: real time   21.6822
    ORTHCH:  cpu time    1.6310: real time    1.6312
 BZINTS: Fermi energy:  0.220984;634.000000 electrons
         Band energy:***********;  BLOECHL correction: -0.048201
       DOS:  cpu time    0.0514: real time    0.0514
    CHARGE:  cpu time    1.0649: real time    1.0651
    MIXING:  cpu time    0.0081: real time    0.0081
    --------------------------------------------
      LOOP:  cpu time   30.7507: real time   30.7598

 eigenvalue-minimisations  :  8555
 total energy-change (2. order) : 0.2005096E-03  (-0.3407776E-04)
 number of electron     634.0000079 magnetization      73.4481994
 augmentation part      367.2603516 magnetization      63.3495002

 DIPCOR: dipole corrections for dipol
 direction  3 min pos   245,
 dipolmoment           0.000000      0.000000      0.363002 electrons x Angstroem
 Tr[quadrupol]    -10317.522504

 energy correction for charged system         0.000000 eV
 dipol+quadrupol energy correction           -0.006463 eV
 added-field ion interaction          7.134718 eV  (added to PSCEN)


 Broyden mixing:
  rms(total) = 0.13656E-01    rms(broyden)= 0.13653E-01
  rms(prec ) = 0.16183E-01
  weight for this iteration     100.00

 eigenvalues of (default mixing * dielectric matrix)
  average eigenvalue GAMMA=   0.4108
  1.2664  1.1632  0.6649  0.3667  0.0486  0.1633  0.1298  0.1129  0.0921  0.1004

 Free energy of the ion-electron system (eV)
  ---------------------------------------------------
  alpha Z        PSCENC =      1343.08280467
  Ewald energy   TEWEN  =    220965.69853201
  -Hartree energ DENC   =   -282868.53964223
  -exchange      EXHF   =         0.00000000
  -V(xc)+E(xc)   XCENC  =      1680.69960581
  PAW double counting   =     67973.66567883   -71476.99089211
  entropy T*S    EENTRO =         0.00000000
  eigenvalues    EBANDS =     -1470.31558118
  atomic energy  EATOM  =     63449.99720736
  Solvation  Ediel_sol  =         0.00000000
  ---------------------------------------------------
  free energy    TOTEN  =      -402.70228684 eV

  energy without entropy =     -402.70228684  energy(sigma->0) =     -402.70228684


--------------------------------------------------------------------------------------------------------




--------------------------------------- Iteration      1(  12)  ---------------------------------------


    POTLOK:  cpu time    0.4310: real time    0.4484
    SETDIJ:  cpu time    0.0253: real time    0.0253
    EDDIAG:  cpu time    5.8541: real time    5.8555
  RMM-DIIS:  cpu time   21.7884: real time   21.7959
    ORTHCH:  cpu time    1.6324: real time    1.6327
 BZINTS: Fermi energy:  0.218306;634.000000 electrons
         Band energy:***********;  BLOECHL correction: -0.048236
       DOS:  cpu time    0.0535: real time    0.0535
    CHARGE:  cpu time    1.0661: real time    1.0661
    MIXING:  cpu time    0.0085: real time    0.0084
    --------------------------------------------
      LOOP:  cpu time   30.8593: real time   30.8859

 eigenvalue-minimisations  :  8574
 total energy-change (2. order) :-0.1016316E-03  (-0.1827920E-04)
 number of electron     634.0000079 magnetization      73.4615750
 augmentation part      367.2635214 magnetization      63.3604627

 DIPCOR: dipole corrections for dipol
 direction  3 min pos   246,
 dipolmoment           0.000000      0.000000      0.363868 electrons x Angstroem
 Tr[quadrupol]    -10317.570151

 energy correction for charged system         0.000000 eV
 dipol+quadrupol energy correction           -0.006493 eV
 added-field ion interaction          8.650101 eV  (added to PSCEN)


 Broyden mixing:
  rms(total) = 0.17802E-01    rms(broyden)= 0.17801E-01
  rms(prec ) = 0.19543E-01
  weight for this iteration     100.00

 eigenvalues of (default mixing * dielectric matrix)
  average eigenvalue GAMMA=   0.4430
  1.6523  1.0935  0.8061  0.5436  0.0486  0.1655  0.1448  0.1218  0.1078  0.0920
  0.0970

 Free energy of the ion-electron system (eV)
  ---------------------------------------------------
  alpha Z        PSCENC =      1344.59815644
  Ewald energy   TEWEN  =    220965.69853201
  -Hartree energ DENC   =   -282868.46700943
  -exchange      EXHF   =         0.00000000
  -V(xc)+E(xc)   XCENC  =      1680.69878330
  PAW double counting   =     67973.57236405   -71476.89335183
  entropy T*S    EENTRO =         0.00000000
  eigenvalues    EBANDS =     -1471.90707039
  atomic energy  EATOM  =     63449.99720736
  Solvation  Ediel_sol  =         0.00000000
  ---------------------------------------------------
  free energy    TOTEN  =      -402.70238847 eV

  energy without entropy =     -402.70238847  energy(sigma->0) =     -402.70238847


--------------------------------------------------------------------------------------------------------




--------------------------------------- Iteration      1(  13)  ---------------------------------------


    POTLOK:  cpu time    0.4317: real time    0.4462
    SETDIJ:  cpu time    0.0253: real time    0.0253
    EDDIAG:  cpu time    5.8553: real time    5.8566
  RMM-DIIS:  cpu time   21.6117: real time   21.6197
    ORTHCH:  cpu time    1.6392: real time    1.6396
 BZINTS: Fermi energy:  0.213515;634.000000 electrons
         Band energy:***********;  BLOECHL correction: -0.048287
       DOS:  cpu time    0.0544: real time    0.0544
    CHARGE:  cpu time    1.0624: real time    1.0626
    MIXING:  cpu time    0.0085: real time    0.0085
    --------------------------------------------
      LOOP:  cpu time   30.6894: real time   30.7129

 eigenvalue-minimisations  :  8526
 total energy-change (2. order) :-0.1440946E-03  (-0.1092613E-04)
 number of electron     634.0000079 magnetization      73.4679253
 augmentation part      367.2640796 magnetization      63.3649758

 DIPCOR: dipole corrections for dipol
 direction  3 min pos   248,
 dipolmoment           0.000000      0.000000      0.364247 electrons x Angstroem
 Tr[quadrupol]    -10317.664561

 energy correction for charged system         0.000000 eV
 dipol+quadrupol energy correction           -0.006507 eV
 added-field ion interaction         11.658940 eV  (added to PSCEN)


 Broyden mixing:
  rms(total) = 0.92854E-02    rms(broyden)= 0.92840E-02
  rms(prec ) = 0.10110E-01
  weight for this iteration     100.00

 eigenvalues of (default mixing * dielectric matrix)
  average eigenvalue GAMMA=   0.4470
  1.8589  1.0897  0.8512  0.5780  0.2155  0.0486  0.1739  0.1344  0.1196  0.0920
  0.1044  0.0980

 Free energy of the ion-electron system (eV)
  ---------------------------------------------------
  alpha Z        PSCENC =      1347.60698184
  Ewald energy   TEWEN  =    220965.69853201
  -Hartree energ DENC   =   -282868.37696133
  -exchange      EXHF   =         0.00000000
  -V(xc)+E(xc)   XCENC  =      1680.69929622
  PAW double counting   =     67973.47377659   -71476.79230991
  entropy T*S    EENTRO =         0.00000000
  eigenvalues    EBANDS =     -1475.00905536
  atomic energy  EATOM  =     63449.99720736
  Solvation  Ediel_sol  =         0.00000000
  ---------------------------------------------------
  free energy    TOTEN  =      -402.70253257 eV

  energy without entropy =     -402.70253257  energy(sigma->0) =     -402.70253257


--------------------------------------------------------------------------------------------------------




--------------------------------------- Iteration      1(  14)  ---------------------------------------


    POTLOK:  cpu time    0.4311: real time    0.4458
    SETDIJ:  cpu time    0.0252: real time    0.0252
    EDDIAG:  cpu time    5.8655: real time    5.8670
  RMM-DIIS:  cpu time   21.7588: real time   21.7657
    ORTHCH:  cpu time    1.6341: real time    1.6342
 BZINTS: Fermi energy:  0.213345;634.000000 electrons
         Band energy:***********;  BLOECHL correction: -0.048317
       DOS:  cpu time    0.0534: real time    0.0533
    CHARGE:  cpu time    1.0619: real time    1.0621
    MIXING:  cpu time    0.0088: real time    0.0088
    --------------------------------------------
      LOOP:  cpu time   30.8380: real time   30.8622

 eigenvalue-minimisations  :  8548
 total energy-change (2. order) :-0.1350771E-03  (-0.5820282E-05)
 number of electron     634.0000079 magnetization      73.4813080
 augmentation part      367.2662871 magnetization      63.3756910

 DIPCOR: dipole corrections for dipol
 direction  3 min pos   248,
 dipolmoment           0.000000      0.000000      0.364455 electrons x Angstroem
 Tr[quadrupol]    -10317.663277

 energy correction for charged system         0.000000 eV
 dipol+quadrupol energy correction           -0.006514 eV
 added-field ion interaction         11.665604 eV  (added to PSCEN)


 Broyden mixing:
  rms(total) = 0.70510E-02    rms(broyden)= 0.70504E-02
  rms(prec ) = 0.76531E-02
  weight for this iteration     100.00

 eigenvalues of (default mixing * dielectric matrix)
  average eigenvalue GAMMA=   0.4769
  2.0337  1.0702  1.0702  0.6747  0.4547  0.0486  0.1725  0.1449  0.1261  0.1144
  0.1031  0.0919  0.0954

 Free energy of the ion-electron system (eV)
  ---------------------------------------------------
  alpha Z        PSCENC =      1347.61363850
  Ewald energy   TEWEN  =    220965.69853201
  -Hartree energ DENC   =   -282868.30754290
  -exchange      EXHF   =         0.00000000
  -V(xc)+E(xc)   XCENC  =      1680.69816259
[...]
   -.548E+01 0.169E+03 -.271E+04   0.550E+01 -.171E+03 0.271E+04   -.229E-01 0.190E+01 0.438E+00   -.144E-03 -.523E-04 -.415E-04
   0.347E+01 0.940E+02 -.798E+03   -.356E+01 -.939E+02 0.797E+03   0.938E-01 -.447E-01 0.600E+00   0.330E-03 -.168E-03 -.594E-04
   -.265E+02 0.336E+02 0.300E+04   0.265E+02 -.337E+02 -.300E+04   -.228E+00 -.113E-01 -.114E+01   0.260E-04 -.701E-04 0.204E-03
   -.445E+02 0.433E+02 -.271E+04   0.446E+02 -.433E+02 0.271E+04   -.182E+00 -.722E-02 0.290E+01   0.452E-03 -.558E-04 -.139E-03
   0.460E+02 0.842E+02 -.752E+03   -.459E+02 -.841E+02 0.752E+03   -.780E-01 -.105E+00 0.401E+00   -.184E-03 0.589E-04 0.169E-03
   0.209E+02 0.513E+02 0.300E+04   -.209E+02 -.515E+02 -.299E+04   0.235E+00 0.524E-01 -.126E+01   -.239E-03 -.290E-04 0.204E-03
   0.465E+02 0.148E+03 -.272E+04   -.465E+02 -.150E+03 0.272E+04   -.365E-01 0.206E+01 0.641E+00   0.171E-03 0.247E-05 -.185E-03
   -.247E+02 0.102E+03 0.110E+04   0.248E+02 -.102E+03 -.110E+04   -.169E+00 0.186E+00 -.608E+00   -.790E-04 -.104E-03 0.299E-03
   0.105E+02 0.781E+02 0.299E+04   -.106E+02 -.781E+02 -.299E+04   -.118E+00 0.451E-01 -.118E+01   0.970E-04 0.146E-03 0.138E-03
   0.537E+01 0.539E+02 -.274E+04   -.546E+01 -.540E+02 0.274E+04   0.605E-01 0.118E+00 0.282E+01   -.473E-03 0.458E-04 -.115E-03
   0.295E+01 0.119E+03 0.117E+04   -.288E+01 -.119E+03 -.117E+04   -.671E-01 0.244E+00 -.341E+00   0.117E-03 0.203E-03 0.231E-03
   -.158E+02 -.317E+02 0.300E+04   0.158E+02 0.318E+02 -.300E+04   -.407E-02 -.279E-01 -.160E+01   0.374E-04 0.157E-03 0.213E-03
   0.902E+02 -.595E+02 -.273E+04   -.919E+02 0.606E+02 0.273E+04   0.173E+01 -.103E+01 0.669E+00   -.335E-03 0.330E-03 -.176E-03
   -.319E+02 -.350E+02 0.299E+04   0.320E+02 0.350E+02 -.299E+04   -.192E+00 0.977E-02 -.130E+01   -.528E-04 -.642E-04 0.131E-03
   -.143E+03 -.534E+02 -.272E+04   0.144E+03 0.545E+02 0.272E+04   -.176E+01 -.107E+01 0.501E+00   -.162E-04 0.242E-03 -.693E-04
   -.287E+02 -.161E+02 0.115E+04   0.287E+02 0.161E+02 -.115E+04   -.279E-01 -.204E-01 -.401E+00   -.106E-03 0.490E-04 0.131E-03
   0.645E+01 0.132E+02 0.114E+04   -.626E+01 -.131E+02 -.114E+04   -.719E-01 -.112E+00 -.381E+00   0.856E-04 -.194E-03 0.145E-03
   0.343E+02 0.282E+01 0.301E+04   -.344E+02 -.276E+01 -.301E+04   0.161E+00 -.719E-01 -.130E+01   0.564E-04 0.177E-03 0.142E-03
   -.540E+02 -.341E+02 -.274E+04   0.558E+02 0.351E+02 0.274E+04   -.174E+01 -.980E+00 0.843E+00   -.676E-04 0.179E-04 -.141E-03
   0.235E+02 0.538E+02 0.115E+04   -.236E+02 -.537E+02 -.115E+04   0.340E-01 -.105E+00 -.392E+00   -.951E-04 -.119E-03 0.370E-03
   -.163E+01 0.235E+02 0.113E+04   0.163E+01 -.234E+02 -.113E+04   0.190E-01 -.528E-01 -.181E+00   0.113E-03 0.137E-03 0.341E-03
   -.633E+02 -.754E+02 0.911E+03   0.635E+02 0.756E+02 -.911E+03   -.140E+00 -.107E+00 -.324E+00   -.405E-04 0.723E-04 0.177E-03
   0.257E+02 -.881E+02 0.913E+03   -.259E+02 0.884E+02 -.913E+03   0.149E+00 -.233E+00 -.376E+00   -.170E-03 -.441E-04 0.143E-03
   -.493E+02 0.135E+02 -.613E+03   0.496E+02 -.134E+02 0.612E+03   -.270E+00 -.612E-01 0.333E+00   0.222E-03 -.174E-03 -.210E-03
   0.428E+02 0.421E+02 -.610E+03   -.428E+02 -.421E+02 0.611E+03   0.591E-01 0.195E-01 -.698E+00   -.806E-04 0.643E-04 0.915E-04
   -.289E+02 0.126E+02 0.236E+04   0.289E+02 -.125E+02 -.236E+04   -.108E-01 -.453E-01 -.273E+01   -.105E-03 -.905E-04 0.237E-03
   -.772E+02 -.705E+02 -.216E+04   0.779E+02 0.710E+02 0.216E+04   -.717E+00 -.561E+00 0.146E+01   0.208E-03 -.710E-04 -.138E-03
   -.239E+02 -.238E+02 0.886E+03   0.241E+02 0.237E+02 -.886E+03   -.293E+00 0.752E-01 -.310E+00   -.273E-03 0.265E-04 0.225E-03
   0.110E+02 0.322E+02 0.236E+04   -.109E+02 -.323E+02 -.236E+04   -.636E-01 0.724E-01 -.303E+01   0.104E-03 -.528E-04 0.306E-04
   -.772E+02 -.452E+02 -.217E+04   0.778E+02 0.456E+02 0.216E+04   -.664E+00 -.391E+00 0.102E+01   -.121E-03 -.121E-03 0.283E-04
   0.365E+02 -.220E+02 0.903E+03   -.364E+02 0.220E+02 -.903E+03   0.660E-02 0.988E-01 -.474E+00   -.983E-04 -.611E-05 0.159E-03
   0.308E+02 -.634E+02 0.903E+03   -.312E+02 0.634E+02 -.903E+03   0.336E+00 -.132E-01 -.252E+00   0.239E-03 -.121E-04 0.140E-03
   -.129E+02 0.697E+02 0.912E+03   0.129E+02 -.696E+02 -.912E+03   0.252E-01 -.678E-01 -.377E+00   0.151E-03 -.215E-04 0.861E-04
   0.277E+02 0.115E+03 0.910E+03   -.279E+02 -.115E+03 -.910E+03   0.213E+00 0.271E+00 -.468E+00   -.181E-03 0.432E-04 0.335E-03
   0.106E+02 -.117E+02 0.241E+04   -.106E+02 0.117E+02 -.241E+04   0.825E-03 0.701E-01 -.278E+01   -.311E-04 -.118E-04 0.915E-04
   0.865E+02 -.283E+02 -.218E+04   -.873E+02 0.288E+02 0.218E+04   0.851E+00 -.527E+00 0.104E+01   0.327E-03 -.712E-04 -.326E-04
   -.257E+02 -.165E+02 -.216E+04   0.243E+02 0.156E+02 0.218E+04   0.146E+01 0.826E+00 -.272E+02   -.804E-04 0.717E-04 -.483E-04
   -.873E+01 0.846E+01 -.220E+04   0.869E+01 -.857E+01 0.222E+04   0.372E-01 0.919E-01 -.278E+02   -.865E-04 0.126E-03 0.128E-03
   -.241E+02 -.303E+02 -.215E+04   0.223E+02 0.295E+02 0.218E+04   0.171E+01 0.839E+00 -.273E+02   0.685E-04 -.157E-03 -.613E-04
   0.386E+02 -.642E+01 -.216E+04   -.373E+02 0.572E+01 0.219E+04   -.128E+01 0.683E+00 -.274E+02   0.117E-03 -.634E-04 -.201E-03
 -----------------------------------------------------------------------------------------------
   -.266E+01 -.375E+01 0.119E+03   -.497E-13 0.520E-12 0.318E-11   0.266E+01 0.375E+01 -.119E+03   -.654E-06 0.134E-03 0.361E-02
 
 
 POSITION                                       TOTAL-FORCE (eV/Angst)
 -----------------------------------------------------------------------------------
     10.01425      0.00432      6.09736        -0.004717     -0.011770     -0.024088
      2.49303      0.00989      6.04844         0.005378     -0.002473     -0.018144
     -0.00690      8.68160      6.10198        -0.013482     -0.004978     -0.023239
      2.49327      8.67448      6.07405        -0.012839      0.005819      0.007249
      8.77321      2.16109      6.08557        -0.000271     -0.001165     -0.006768
      1.25520      2.19250      6.09258        -0.007543      0.012819     -0.022906
     -0.00285      1.44433      2.02730        -0.074377      0.002318      0.198359
     -0.00706      1.39571      8.15838        -0.006776      0.004706      0.008739
      3.75309      2.16887      6.07637         0.012312     -0.005271     -0.026655
      2.50178      1.44890      2.02869         0.102863     -0.063840      0.186869
      2.49344      1.45181      8.03403         0.001467      0.020528     -0.025254
      6.26031      2.18704      6.11003         0.015487      0.008297     -0.037095
      5.00042      1.45188      2.04906        -0.053972      0.027021      0.234986
      5.00584      1.39162      8.14545         0.000545      0.009072     -0.021288
      7.52680      1.44774      2.04372        -0.002786      0.007052      0.339490
      7.51992      1.42613      8.03928         0.010420     -0.016979     -0.003770
      6.25724      0.72120      4.08068         0.017519     -0.054780     -0.220873
      8.77725      0.71231      4.06936        -0.020704     -0.021758     -0.119365
     -2.49094      4.35164      6.07052         0.011093      0.013332     -0.017686
     -1.27467      3.61315      2.03306        -0.031757      0.152355      0.225429
     -1.29392      3.62607      8.13687        -0.000273     -0.017401     -0.013979
     -0.00860      2.89985      4.06991         0.094102     -0.004142     -0.187779
      5.02055      4.35036      6.06671         0.008914      0.002930     -0.042659
      3.76492      3.61380      2.03274        -0.041739      0.114283      0.144682
      3.72020      3.64201      8.17174         0.007733      0.024786      0.005948
     -3.75633      6.52725      6.06948        -0.008739      0.022353     -0.021767
     -1.25608      6.51183      6.05311         0.008653     -0.011592     -0.027391
     -2.50964      5.80144      2.00867         0.143216     -0.092798      0.356008
     -2.49849      5.75844      8.12438         0.000138     -0.013339     -0.022851
      1.26399      6.50843      6.08300         0.011035     -0.026397     -0.017267
     -0.00666      5.79426      2.00000        -0.124052     -0.108616      0.265743
      0.00076      5.78107      8.03184         0.006397      0.004838     -0.021474
      3.76730      6.50911      6.06442        -0.006487     -0.005797     -0.026780
      2.50308      5.78909      2.00257         0.196568     -0.091730      0.280005
      2.51205      5.74116      8.16823         0.016120     -0.012934      0.026195
      1.25945      5.05378      4.04326        -0.015278     -0.021486     -0.128616
      5.01445      5.79798      2.01253        -0.227269     -0.044918      0.279520
      5.02078      5.78171      8.03134        -0.026999     -0.008984     -0.016859
      6.27138      5.06452      4.04277         0.007620     -0.073241     -0.102181
     -3.76517      7.96148      2.01691         0.028895      0.077669      0.280576
     -3.78781      7.97598      8.13602         0.000681     -0.001714     -0.019199
     -1.24654      7.96318      2.02107        -0.056223      0.021571      0.213456
     -1.22788      7.97645      8.12896        -0.009569     -0.006610     -0.028806
     -2.51584      7.25277      4.05487        -0.067521     -0.030959     -0.131258
      0.00963      7.22591      4.06957         0.127831      0.008353     -0.175666
      3.74757      7.96401      2.04130         0.123047     -0.008918      0.213496
      3.80064      7.97633      8.14124        -0.009093      0.010042     -0.031786
      2.50222      7.23652      4.07555        -0.070237     -0.007389     -0.179746
      5.01801      7.23500      4.07176         0.020526      0.021100     -0.084898
      1.20950      0.71304      4.05362         0.008684      0.056440     -0.234556
      3.78049      0.67792      4.06351        -0.041368      0.022141     -0.227475
     -0.00362      4.33171      6.09803         0.000778      0.007817     -0.033912
      2.55085      4.36508      6.13535         0.002873      0.007013     -0.027321
      1.23098      3.62224      2.02941        -0.001653      0.055316      0.146947
      1.29134      3.62316      8.20674        -0.012109     -0.013324      0.016816
      2.51334      2.87806      4.07938        -0.047576      0.010106     -0.145778
      6.26024      3.63306      2.00212         0.012315     -0.013354      0.196284
      6.29049      3.63559      8.13195        -0.006610     -0.023870     -0.021248
      5.02463      2.88643      4.11822         0.068795      0.022865     -0.451120
      7.52997      2.83909      4.10996        -0.015921     -0.012795     -0.265138
     -1.25360      5.10876      4.01488         0.057785     -0.003842     -0.298161
      3.75975      5.11705      4.02298        -0.049183      0.040245     -0.294021
      1.25181      7.95850      2.03067        -0.060212      0.083066      0.341471
      1.22933      7.97076      8.12133         0.002123      0.000457     -0.048283
      5.05666      2.88282      9.25222         0.007816     -0.004629     -0.016105
     -2.50382      7.23729      9.21677        -0.002133     -0.015968     -0.016868
     -0.02199      2.88535      9.26959        -0.008080     -0.003885     -0.025425
      2.49304      7.26978      9.24781        -0.002182     -0.013063     -0.014762
 -----------------------------------------------------------------------------------
    total drift:                                0.000427     -0.000281      0.003484


--------------------------------------------------------------------------------------------------------



  FREE ENERGIE OF THE ION-ELECTRON SYSTEM (eV)
  ---------------------------------------------------
  free  energy   TOTEN  =      -419.45651116 eV

  energy  without entropy=     -419.45651116  energy(sigma->0) =     -419.45651116
 


--------------------------------------------------------------------------------------------------------


    POTLOK:  cpu time    0.4560: real time    0.4561


--------------------------------------------------------------------------------------------------------


 stress matrix after NEB project (eV)
    -31.74788      0.60301      0.05546
      0.60301    -31.29298     -0.55252
      0.05546     -0.55252    -10.42936
  FORCES: max atom, RMS     0.048332    0.020745
  FORCE total and by dimension    0.171070    0.048283
  Stress total and by dimension   45.796221   31.747875
 writing wavefunctions
     LOOP+:  cpu time 1158.9116: real time 1208.5588
    4ORBIT:  cpu time    0.0000: real time    0.0000
 


 total charge     
 
# of ion       s       p       d       tot
------------------------------------------
    1        0.500   0.497   8.326   9.322
    2        0.495   0.495   8.328   9.318
    3        0.505   0.504   8.329   9.338
    4        0.493   0.496   8.320   9.309
    5        0.498   0.500   8.326   9.324
    6        0.507   0.513   8.321   9.340
    7        0.489   0.382   8.319   9.190
    8        0.487   0.489   8.327   9.302
    9        0.505   0.509   8.326   9.341
   10        0.501   0.389   8.305   9.196
   11        0.476   0.376   8.349   9.201
   12        0.504   0.511   8.331   9.346
   13        0.498   0.396   8.313   9.206
   14        0.493   0.495   8.337   9.324
   15        0.498   0.389   8.311   9.197
   16        0.479   0.379   8.359   9.217
   17        0.508   0.512   8.333   9.353
   18        0.503   0.503   8.330   9.336
   19        0.508   0.512   8.328   9.348
   20        0.502   0.393   8.311   9.206
   21        0.496   0.501   8.332   9.329
   22        0.512   0.524   8.325   9.360
   23        0.505   0.511   8.328   9.345
   24        0.504   0.394   8.309   9.207
   25        0.496   0.495   8.329   9.320
   26        0.487   0.487   8.311   9.285
   27        0.495   0.496   8.326   9.316
   28        0.492   0.385   8.313   9.190
   29        0.495   0.502   8.324   9.320
   30        0.499   0.503   8.322   9.324
   31        0.500   0.386   8.315   9.201
   32        0.483   0.385   8.356   9.224
   33        0.499   0.500   8.323   9.323
   34        0.493   0.386   8.317   9.196
   35        0.495   0.499   8.326   9.320
   36        0.509   0.515   8.324   9.347
   37        0.496   0.382   8.310   9.187
   38        0.475   0.375   8.348   9.197
   39        0.506   0.513   8.318   9.337
   40        0.484   0.373   8.311   9.168
   41        0.492   0.496   8.324   9.312
   42        0.491   0.381   8.314   9.186
   43        0.498   0.501   8.336   9.335
   44        0.506   0.509   8.326   9.341
   45        0.504   0.511   8.325   9.340
   46        0.486   0.378   8.307   9.171
   47        0.489   0.489   8.336   9.314
   48        0.501   0.505   8.320   9.327
   49        0.502   0.504   8.323   9.329
   50        0.477   0.511   6.161   7.148
   51        0.480   0.515   6.181   7.176
   52        0.471   0.506   6.176   7.152
   53        0.481   0.517   6.181   7.179
   54        0.463   0.393   6.114   6.970
   55        0.473   0.511   6.166   7.151
   56        0.477   0.516   6.209   7.201
   57        0.463   0.389   6.111   6.963
   58        0.474   0.519   6.155   7.148
   59        0.481   0.517   6.208   7.206
   60        0.477   0.514   6.177   7.167
   61        0.475   0.507   6.153   7.136
   62        0.478   0.512   6.167   7.157
   63        0.462   0.394   6.096   6.952
   64        0.476   0.523   6.156   7.155
   65        1.581   3.353   0.000   4.934
   66        1.582   3.340   0.000   4.922
   67        1.581   3.353   0.000   4.934
   68        1.581   3.354   0.000   4.935
--------------------------------------------------
tot         37.769  43.369 500.318 581.455
 


 magnetization (x)
 
# of ion       s       p       d       tot
------------------------------------------
    1       -0.008  -0.024   0.613   0.580
    2       -0.012  -0.029   0.701   0.660
    3       -0.009  -0.027   0.618   0.582
    4       -0.011  -0.031   0.726   0.684
    5       -0.011  -0.030   0.719   0.679
    6       -0.021  -0.043   0.767   0.704
    7       -0.015  -0.030   0.683   0.638
    8       -0.004  -0.014   0.518   0.499
    9       -0.015  -0.035   0.731   0.680
   10       -0.014  -0.036   0.771   0.720
   11       -0.014  -0.019   0.781   0.748
   12       -0.015  -0.037   0.714   0.661
   13       -0.018  -0.037   0.736   0.681
   14       -0.009  -0.020   0.461   0.432
   15       -0.011  -0.035   0.730   0.684
   16       -0.016  -0.020   0.765   0.729
   17       -0.016  -0.035   0.694   0.643
   18       -0.011  -0.028   0.676   0.637
   19       -0.014  -0.034   0.657   0.610
   20       -0.021  -0.034   0.747   0.692
   21       -0.011  -0.020   0.573   0.542
   22       -0.020  -0.048   0.782   0.714
   23       -0.016  -0.038   0.749   0.694
   24       -0.023  -0.035   0.760   0.702
   25       -0.014  -0.026   0.548   0.509
   26       -0.005  -0.025   0.742   0.712
   27       -0.012  -0.030   0.703   0.661
   28       -0.013  -0.030   0.715   0.673
   29       -0.008  -0.018   0.580   0.555
   30       -0.014  -0.037   0.742   0.691
   31       -0.012  -0.034   0.734   0.688
   32       -0.019  -0.025   0.786   0.743
   33       -0.012  -0.030   0.733   0.691
   34       -0.018  -0.035   0.704   0.651
   35       -0.011  -0.024   0.591   0.555
   36       -0.021  -0.044   0.737   0.671
   37       -0.008  -0.030   0.741   0.703
   38       -0.014  -0.020   0.781   0.748
   39       -0.019  -0.041   0.757   0.697
   40       -0.011  -0.025   0.714   0.678
   41       -0.004  -0.011   0.533   0.518
   42       -0.016  -0.027   0.709   0.665
   43       -0.010  -0.015   0.478   0.453
   44       -0.014  -0.032   0.760   0.715
   45       -0.013  -0.036   0.719   0.670
   46       -0.012  -0.026   0.719   0.681
   47       -0.005  -0.011   0.459   0.443
   48       -0.012  -0.035   0.762   0.716
   49       -0.010  -0.027   0.718   0.681
   50        0.007  -0.008   2.798   2.797
   51        0.004  -0.013   2.739   2.730
   52        0.003  -0.018   2.779   2.764
   53        0.004  -0.017   2.688   2.674
   54        0.015  -0.008   2.906   2.913
   55        0.014  -0.001   2.710   2.723
   56       -0.003  -0.029   2.657   2.625
   57        0.012  -0.009   2.914   2.917
   58        0.020   0.007   2.742   2.769
   59       -0.001  -0.024   2.708   2.682
   60        0.005  -0.017   2.755   2.742
   61        0.007  -0.006   2.822   2.823
   62        0.004  -0.010   2.785   2.778
   63        0.019  -0.007   2.948   2.960
   64        0.020   0.007   2.742   2.769
   65        0.002   0.073   0.000   0.074
   66        0.002   0.099   0.000   0.100
   67        0.002   0.085   0.000   0.087
   68        0.002   0.093   0.000   0.095
--------------------------------------------------
tot         -0.506  -1.237  75.530  73.788
 
 BZINTS: Fermi energy:  0.248885;634.000000 electrons
         Band energy:***********;  BLOECHL correction: -0.048331

 total amount of memory used by VASP MPI-rank0   114930. kBytes
=======================================================================

   base      :      30000. kBytes
   nonlr-proj:      13713. kBytes
   fftplans  :       6402. kBytes
   grid      :      17692. kBytes
   one-center:         93. kBytes
   wavefun   :      47030. kBytes
 
  
  
 General timing and accounting informations for this job:
 ========================================================
  
                  Total CPU time used (sec):     1331.497
                            User time (sec):     1163.362
                          System time (sec):      168.135
                         Elapsed time (sec):     1396.695
  
                   Maximum memory used (kb):      345516.
                   Average memory used (kb):           0.
  
                          Minor page faults:     18783332
                          Major page faults:            0
                 Voluntary context switches:         4986
