SQS-NiFe                                
           1
    10.026770    0.000000    0.000000
    -5.013385    8.683438    0.000000
     0.000000    0.000000   21.189180
   Ni   Fe   O 
  49  15   4
Direct configuration=     1
   0.99900080  0.00049799  0.28775797
   0.24920712  0.00113919  0.28544962
   0.49920634  0.99978892  0.28797614
   0.74814588  0.99896887  0.28665822
   0.99941608  0.24887449  0.28720185
   0.25143105  0.25249219  0.28753252
   0.08288200  0.16633200  0.09567600
   0.07966166  0.16073233  0.38502561
   0.49919238  0.24977084  0.28676779
   0.33293900  0.16685800  0.09574200
   0.33227458  0.16719357  0.37915739
   0.75029135  0.25186343  0.28835609
   0.58230700  0.16720100  0.09670300
   0.57937795  0.16026111  0.38441549
   0.83403200  0.16672400  0.09645100
   0.83210181  0.16423574  0.37940494
   0.66558100  0.08305500  0.19258300
   0.91639700  0.08203100  0.19204900
   0.00214224  0.50114292  0.28649130
   0.08092200  0.41609700  0.09594800
   0.07974590  0.41758495  0.38401078
   0.16611800  0.33395200  0.19207500
   0.75121258  0.50099564  0.28631171
   0.58357300  0.41617200  0.09593300
   0.58073669  0.41942054  0.38565608
   0.00121427  0.75168968  0.28644250
   0.24968440  0.74991381  0.28567009
   0.08375800  0.66810400  0.09479700
   0.08239383  0.66315187  0.38342099
   0.50082243  0.74952211  0.28708065
   0.33297400  0.66727700  0.09438800
   0.33295530  0.66575820  0.37905382
   0.75052418  0.74960091  0.28620350
   0.58298100  0.66668200  0.09450900
   0.58111551  0.66116182  0.38549054
   0.41661000  0.58200200  0.19081700
   0.83395900  0.66770600  0.09497900
   0.83365358  0.66583242  0.37903036
   0.91708300  0.58323900  0.19079400
   0.08291700  0.91685800  0.09518600
   0.08149457  0.91852791  0.38397066
   0.33420600  0.91705400  0.09538200
   0.33683088  0.91858221  0.38363751
   0.16670900  0.83524200  0.19136500
   0.41703500  0.83214900  0.19205900
   0.83233100  0.91715000  0.09633700
   0.83833387  0.91856866  0.38421702
   0.66623900  0.83337000  0.19234100
   0.91705900  0.83319500  0.19216200
   0.16168500  0.08211500  0.19130600
   0.41607500  0.07807100  0.19177300
   0.24906318  0.49884767  0.28778992
   0.50574883  0.50268997  0.28955114
   0.33134100  0.41714300  0.09577600
   0.33741431  0.41724983  0.38730809
   0.41638400  0.33144300  0.19252200
   0.83354800  0.41839000  0.09448800
   0.83670954  0.41868078  0.38377849
   0.66732400  0.33240600  0.19435500
   0.91446400  0.32695500  0.19396500
   0.16914200  0.58833400  0.18947800
   0.66961600  0.58928900  0.18986000
   0.58310400  0.91651500  0.09583500
   0.58156857  0.91792676  0.38327712
   0.67031133  0.33199075  0.43664812
   0.16701596  0.83345956  0.43497532
   0.16394800  0.33228149  0.43746796
   0.66723881  0.83720099  0.43644009
