  69  69   1   0
  0.2721370E+02  0.1010031E-08  0.1010031E-08  0.2125380E-08  0.1500000E-16
  1.000000000000000E-004
  CAR 
 SQS-NiFe                                
      3.61626617    -21.66812502  301     -0.18271375      1.00000000
    -21.668  0.0000E+00  0.0000E+00
    -21.584  0.0000E+00  0.0000E+00
    -21.500  0.0000E+00  0.0000E+00
    -21.415  0.0000E+00  0.0000E+00
    -21.331  0.0000E+00  0.0000E+00
    -21.247  0.0000E+00  0.0000E+00
    -21.162  0.0000E+00  0.0000E+00
    -21.078  0.0000E+00  0.0000E+00
    -20.994  0.0000E+00  0.0000E+00
    -20.910  0.0000E+00  0.0000E+00
    -20.825  0.4569E-17  0.3850E-18
    -20.741  0.4462E-15  0.3799E-16
    -20.657  0.3709E-13  0.3164E-14
    -20.572  0.2169E-11  0.1860E-12
    -20.488  0.8946E-10  0.7726E-11
    -20.404  0.2602E-08  0.2270E-09
    -20.320  0.5340E-07  0.4727E-08
    -20.235  0.7739E-06  0.6995E-07
    -20.151  0.7924E-05  0.7378E-06
    -20.067  0.5736E-04  0.5572E-05
    -19.982  0.2938E-03  0.3034E-04
    -19.898  0.1067E-02  0.1202E-03
    -19.814  0.2757E-02  0.3526E-03
    -19.730  0.5144E-02  0.7862E-03
    -19.645  0.7261E-02  0.1398E-02
    -19.561  0.8829E-02  0.2142E-02
    -19.477  0.1137E-01  0.3100E-02
    -19.393  0.1612E-01  0.4459E-02
    -19.308  0.2124E-01  0.6249E-02
    -19.224  0.2281E-01  0.8172E-02
    -19.140  0.1910E-01  0.9781E-02
    -19.055  0.1225E-01  0.1081E-01
    -18.971  0.5963E-02  0.1132E-01
    -18.887  0.2174E-02  0.1150E-01
    -18.803  0.5870E-03  0.1155E-01
    -18.718  0.1160E-03  0.1156E-01
    -18.634  0.1664E-04  0.1156E-01
    -18.550  0.1718E-05  0.1156E-01
    -18.465  0.1269E-06  0.1156E-01
    -18.381  0.6685E-08  0.1156E-01
    -18.297  0.2501E-09  0.1156E-01
    -18.213  0.6628E-11  0.1156E-01
    -18.128  0.1242E-12  0.1156E-01
    -18.044  0.1642E-14  0.1156E-01
    -17.960  0.1523E-16  0.1156E-01
    -17.875  0.0000E+00  0.1156E-01
    -17.791  0.0000E+00  0.1156E-01
    -17.707  0.0000E+00  0.1156E-01
    -17.623  0.0000E+00  0.1156E-01
    -17.538  0.0000E+00  0.1156E-01
    -17.454  0.0000E+00  0.1156E-01
    -17.370  0.0000E+00  0.1156E-01
    -17.285  0.0000E+00  0.1156E-01
    -17.201  0.0000E+00  0.1156E-01
    -17.117  0.0000E+00  0.1156E-01
    -17.033  0.0000E+00  0.1156E-01
    -16.948  0.0000E+00  0.1156E-01
    -16.864  0.0000E+00  0.1156E-01
    -16.780  0.0000E+00  0.1156E-01
    -16.696  0.0000E+00  0.1156E-01
    -16.611  0.0000E+00  0.1156E-01
    -16.527  0.0000E+00  0.1156E-01
    -16.443  0.0000E+00  0.1156E-01
    -16.358  0.0000E+00  0.1156E-01
    -16.274  0.0000E+00  0.1156E-01
    -16.190  0.0000E+00  0.1156E-01
    -16.106  0.0000E+00  0.1156E-01
    -16.021  0.0000E+00  0.1156E-01
    -15.937  0.0000E+00  0.1156E-01
    -15.853  0.0000E+00  0.1156E-01
    -15.768  0.0000E+00  0.1156E-01
    -15.684  0.0000E+00  0.1156E-01
    -15.600  0.0000E+00  0.1156E-01
    -15.516  0.0000E+00  0.1156E-01
    -15.431  0.0000E+00  0.1156E-01
    -15.347  0.0000E+00  0.1156E-01
    -15.263  0.0000E+00  0.1156E-01
    -15.178  0.0000E+00  0.1156E-01
    -15.094  0.0000E+00  0.1156E-01
    -15.010  0.0000E+00  0.1156E-01
    -14.926  0.0000E+00  0.1156E-01
    -14.841  0.0000E+00  0.1156E-01
    -14.757  0.0000E+00  0.1156E-01
    -14.673  0.0000E+00  0.1156E-01
    -14.588  0.0000E+00  0.1156E-01
    -14.504  0.0000E+00  0.1156E-01
    -14.420  0.0000E+00  0.1156E-01
    -14.336  0.0000E+00  0.1156E-01
    -14.251  0.0000E+00  0.1156E-01
    -14.167  0.0000E+00  0.1156E-01
    -14.083  0.0000E+00  0.1156E-01
    -13.999  0.0000E+00  0.1156E-01
    -13.914  0.0000E+00  0.1156E-01
    -13.830  0.0000E+00  0.1156E-01
    -13.746  0.0000E+00  0.1156E-01
    -13.661  0.0000E+00  0.1156E-01
    -13.577  0.0000E+00  0.1156E-01
    -13.493  0.0000E+00  0.1156E-01
    -13.409  0.0000E+00  0.1156E-01
    -13.324  0.0000E+00  0.1156E-01
    -13.240  0.0000E+00  0.1156E-01
    -13.156  0.0000E+00  0.1156E-01
    -13.071  0.0000E+00  0.1156E-01
    -12.987  0.0000E+00  0.1156E-01
    -12.903  0.0000E+00  0.1156E-01
    -12.819  0.0000E+00  0.1156E-01
    -12.734  0.0000E+00  0.1156E-01
    -12.650  0.0000E+00  0.1156E-01
    -12.566  0.0000E+00  0.1156E-01
    -12.481  0.0000E+00  0.1156E-01
    -12.397  0.0000E+00  0.1156E-01
    -12.313  0.0000E+00  0.1156E-01
    -12.229  0.0000E+00  0.1156E-01
    -12.144  0.0000E+00  0.1156E-01
    -12.060  0.0000E+00  0.1156E-01
    -11.976  0.0000E+00  0.1156E-01
    -11.891  0.0000E+00  0.1156E-01
    -11.807  0.0000E+00  0.1156E-01
    -11.723  0.0000E+00  0.1156E-01
    -11.639  0.0000E+00  0.1156E-01
    -11.554  0.0000E+00  0.1156E-01
    -11.470  0.0000E+00  0.1156E-01
    -11.386  0.0000E+00  0.1156E-01
    -11.302  0.0000E+00  0.1156E-01
    -11.217  0.0000E+00  0.1156E-01
    -11.133  0.0000E+00  0.1156E-01
    -11.049  0.0000E+00  0.1156E-01
    -10.964  0.0000E+00  0.1156E-01
    -10.880  0.0000E+00  0.1156E-01
    -10.796  0.0000E+00  0.1156E-01
    -10.712  0.0000E+00  0.1156E-01
    -10.627  0.0000E+00  0.1156E-01
    -10.543  0.0000E+00  0.1156E-01
    -10.459  0.0000E+00  0.1156E-01
    -10.374  0.0000E+00  0.1156E-01
    -10.290  0.0000E+00  0.1156E-01
    -10.206  0.0000E+00  0.1156E-01
    -10.122  0.0000E+00  0.1156E-01
    -10.037  0.0000E+00  0.1156E-01
     -9.953  0.0000E+00  0.1156E-01
     -9.869  0.0000E+00  0.1156E-01
     -9.784  0.0000E+00  0.1156E-01
     -9.700  0.0000E+00  0.1156E-01
     -9.616  0.0000E+00  0.1156E-01
     -9.532  0.0000E+00  0.1156E-01
     -9.447  0.1523E-16  0.1156E-01
     -9.363  0.1608E-14  0.1156E-01
     -9.279  0.1209E-12  0.1156E-01
     -9.194  0.6410E-11  0.1156E-01
     -9.110  0.2395E-09  0.1156E-01
     -9.026  0.6314E-08  0.1156E-01
     -8.942  0.1175E-06  0.1156E-01
     -8.857  0.1544E-05  0.1156E-01
     -8.773  0.1433E-04  0.1156E-01
     -8.689  0.9408E-04  0.1157E-01
     -8.605  0.4369E-03  0.1161E-01
     -8.520  0.1436E-02  0.1173E-01
     -8.436  0.3340E-02  0.1201E-01
     -8.352  0.5504E-02  0.1247E-01
     -8.267  0.6424E-02  0.1301E-01
     -8.183  0.5311E-02  0.1346E-01
     -8.099  0.3110E-02  0.1372E-01
     -8.015  0.1290E-02  0.1383E-01
     -7.930  0.3788E-03  0.1387E-01
     -7.846  0.7870E-04  0.1387E-01
     -7.762  0.1157E-04  0.1387E-01
     -7.677  0.1226E-05  0.1387E-01
     -7.593  0.4705E-06  0.1387E-01
     -7.509  0.4314E-05  0.1387E-01
     -7.425  0.3435E-04  0.1388E-01
     -7.340  0.1937E-03  0.1389E-01
     -7.256  0.7752E-03  0.1396E-01
     -7.172  0.2213E-02  0.1414E-01
     -7.087  0.4578E-02  0.1453E-01
     -7.003  0.7181E-02  0.1514E-01
     -6.919  0.9491E-02  0.1594E-01
     -6.835  0.1230E-01  0.1697E-01
     -6.750  0.1663E-01  0.1837E-01
     -6.666  0.2196E-01  0.2022E-01
     -6.582  0.2691E-01  0.2249E-01
     -6.497  0.3022E-01  0.2504E-01
     -6.413  0.3044E-01  0.2761E-01
     -6.329  0.2687E-01  0.2987E-01
     -6.245  0.2147E-01  0.3168E-01
     -6.160  0.1797E-01  0.3319E-01
     -6.076  0.1881E-01  0.3478E-01
     -5.992  0.2372E-01  0.3678E-01
     -5.908  0.3099E-01  0.3939E-01
     -5.823  0.3873E-01  0.4265E-01
     -5.739  0.4489E-01  0.4644E-01
     -5.655  0.4727E-01  0.5042E-01
     -5.570  0.4463E-01  0.5418E-01
     -5.486  0.3781E-01  0.5737E-01
     -5.402  0.2961E-01  0.5986E-01
     -5.318  0.2307E-01  0.6181E-01
     -5.233  0.1984E-01  0.6348E-01
     -5.149  0.2035E-01  0.6520E-01
     -5.065  0.2415E-01  0.6723E-01
     -4.980  0.2960E-01  0.6973E-01
     -4.896  0.3397E-01  0.7259E-01
     -4.812  0.3465E-01  0.7551E-01
     -4.728  0.3075E-01  0.7810E-01
     -4.643  0.2486E-01  0.8020E-01
     -4.559  0.2218E-01  0.8207E-01
     -4.475  0.2645E-01  0.8430E-01
     -4.390  0.3587E-01  0.8732E-01
     -4.306  0.4365E-01  0.9100E-01
     -4.222  0.4557E-01  0.9484E-01
     -4.138  0.4676E-01  0.9878E-01
     -4.053  0.5582E-01  0.1035E+00
     -3.969  0.7412E-01  0.1097E+00
     -3.885  0.9672E-01  0.1179E+00
     -3.800  0.1190E+00  0.1279E+00
     -3.716  0.1364E+00  0.1394E+00
     -3.632  0.1427E+00  0.1514E+00
     -3.548  0.1339E+00  0.1627E+00
     -3.463  0.1144E+00  0.1724E+00
     -3.379  0.9679E-01  0.1805E+00
     -3.295  0.9347E-01  0.1884E+00
     -3.211  0.1058E+00  0.1973E+00
     -3.126  0.1221E+00  0.2076E+00
     -3.042  0.1295E+00  0.2185E+00
     -2.958  0.1261E+00  0.2291E+00
     -2.873  0.1215E+00  0.2394E+00
     -2.789  0.1251E+00  0.2499E+00
     -2.705  0.1361E+00  0.2614E+00
     -2.621  0.1461E+00  0.2737E+00
     -2.536  0.1501E+00  0.2864E+00
     -2.452  0.1502E+00  0.2990E+00
     -2.368  0.1508E+00  0.3117E+00
     -2.283  0.1529E+00  0.3246E+00
     -2.199  0.1564E+00  0.3378E+00
     -2.115  0.1629E+00  0.3515E+00
     -2.031  0.1747E+00  0.3662E+00
     -1.946  0.1910E+00  0.3823E+00
     -1.862  0.2078E+00  0.3999E+00
     -1.778  0.2204E+00  0.4184E+00
     -1.693  0.2245E+00  0.4374E+00
     -1.609  0.2175E+00  0.4557E+00
     -1.525  0.2010E+00  0.4726E+00
     -1.441  0.1814E+00  0.4879E+00
     -1.356  0.1656E+00  0.5019E+00
     -1.272  0.1571E+00  0.5151E+00
     -1.188  0.1553E+00  0.5282E+00
     -1.103  0.1585E+00  0.5416E+00
     -1.019  0.1643E+00  0.5554E+00
     -0.935  0.1707E+00  0.5698E+00
     -0.851  0.1765E+00  0.5847E+00
     -0.766  0.1810E+00  0.5999E+00
     -0.682  0.1828E+00  0.6153E+00
     -0.598  0.1808E+00  0.6306E+00
     -0.514  0.1767E+00  0.6455E+00
     -0.429  0.1737E+00  0.6601E+00
     -0.345  0.1732E+00  0.6747E+00
     -0.261  0.1740E+00  0.6894E+00
     -0.176  0.1735E+00  0.7040E+00
     -0.092  0.1701E+00  0.7183E+00
     -0.008  0.1647E+00  0.7322E+00
      0.076  0.1595E+00  0.7456E+00
      0.161  0.1550E+00  0.7587E+00
      0.245  0.1499E+00  0.7713E+00
      0.329  0.1420E+00  0.7833E+00
      0.414  0.1289E+00  0.7942E+00
      0.498  0.1098E+00  0.8034E+00
      0.582  0.8772E-01  0.8108E+00
      0.666  0.6773E-01  0.8165E+00
      0.751  0.5360E-01  0.8210E+00
      0.835  0.4506E-01  0.8248E+00
      0.919  0.3957E-01  0.8282E+00
      1.004  0.3560E-01  0.8312E+00
      1.088  0.3265E-01  0.8339E+00
      1.172  0.2992E-01  0.8364E+00
      1.256  0.2673E-01  0.8387E+00
      1.341  0.2302E-01  0.8406E+00
      1.425  0.1913E-01  0.8422E+00
      1.509  0.1551E-01  0.8436E+00
      1.594  0.1235E-01  0.8446E+00
      1.678  0.9218E-02  0.8454E+00
      1.762  0.5886E-02  0.8459E+00
      1.846  0.2952E-02  0.8461E+00
      1.931  0.1103E-02  0.8462E+00
      2.015  0.2985E-03  0.8462E+00
      2.099  0.5778E-04  0.8462E+00
      2.183  0.7951E-05  0.8462E+00
      2.268  0.7751E-06  0.8462E+00
      2.352  0.5344E-07  0.8462E+00
      2.436  0.2603E-08  0.8462E+00
      2.521  0.8947E-10  0.8462E+00
      2.605  0.2170E-11  0.8462E+00
      2.689  0.3708E-13  0.8462E+00
      2.773  0.4447E-15  0.8462E+00
      2.858  0.6091E-17  0.8462E+00
      2.942  0.0000E+00  0.8462E+00
      3.026  0.0000E+00  0.8462E+00
      3.111  0.0000E+00  0.8462E+00
      3.195  0.0000E+00  0.8462E+00
      3.279  0.0000E+00  0.8462E+00
      3.363  0.0000E+00  0.8462E+00
      3.448  0.0000E+00  0.8462E+00
      3.532  0.0000E+00  0.8462E+00
      3.616  0.0000E+00  0.8462E+00
      3.61626617    -21.66812502  301     -0.18271375      1.00000000
    -21.668  0.0000E+00  0.0000E+00  0.0000E+00
    -21.584  0.0000E+00  0.0000E+00  0.0000E+00
    -21.500  0.0000E+00  0.0000E+00  0.0000E+00
    -21.415  0.0000E+00  0.0000E+00  0.0000E+00
    -21.331  0.0000E+00  0.0000E+00  0.0000E+00
    -21.247  0.0000E+00  0.0000E+00  0.0000E+00
    -21.162  0.0000E+00  0.0000E+00  0.0000E+00
    -21.078  0.0000E+00  0.0000E+00  0.0000E+00
    -20.994  0.0000E+00  0.0000E+00  0.0000E+00
    -20.910  0.0000E+00  0.0000E+00  0.0000E+00
    -20.825  0.8898E-22  0.5427E-22  0.1185E-22
    -20.741  0.8691E-20  0.5300E-20  0.1157E-20
    -20.657  0.7223E-18  0.4405E-18  0.9617E-19
    -20.572  0.4225E-16  0.2577E-16  0.5625E-17
    -20.488  0.1742E-14  0.1063E-14  0.2320E-15
    -20.404  0.5067E-13  0.3091E-13  0.6747E-14
    -20.320  0.1040E-11  0.6343E-12  0.1385E-12
    -20.235  0.1507E-10  0.9192E-11  0.2007E-11
    -20.151  0.1543E-09  0.9412E-10  0.2055E-10
    -20.067  0.1117E-08  0.6813E-09  0.1487E-09
    -19.982  0.5720E-08  0.3488E-08  0.7616E-09
    -19.898  0.2074E-07  0.1265E-07  0.2762E-08
    -19.814  0.5333E-07  0.3255E-07  0.7113E-08
    -19.730  0.9778E-07  0.5976E-07  0.1309E-07
    -19.645  0.1297E-06  0.7962E-07  0.1757E-07
    -19.561  0.1299E-06  0.8076E-07  0.1820E-07
    -19.477  0.1088E-06  0.6954E-07  0.1643E-07
    -19.393  0.8736E-07  0.5809E-07  0.1470E-07
    -19.308  0.6883E-07  0.4728E-07  0.1283E-07
    -19.224  0.4712E-07  0.3320E-07  0.9783E-08
    -19.140  0.2518E-07  0.1841E-07  0.6168E-08
    -19.055  0.1010E-07  0.7956E-08  0.3237E-08
    -18.971  0.3051E-08  0.2754E-08  0.1423E-08
    -18.887  0.7117E-09  0.7870E-09  0.5091E-09
    -18.803  0.1321E-09  0.1851E-09  0.1410E-09
    -18.718  0.1980E-10  0.3453E-10  0.2903E-10
    -18.634  0.2371E-11  0.4882E-11  0.4330E-11
    -18.550  0.2199E-12  0.5064E-12  0.4619E-12
    -18.465  0.1529E-13  0.3782E-13  0.3500E-13
    -18.381  0.7782E-15  0.2013E-14  0.1878E-14
    -18.297  0.2855E-16  0.7599E-16  0.7120E-16
    -18.213  0.7480E-18  0.2028E-17  0.1905E-17
    -18.128  0.1390E-19  0.3821E-19  0.3595E-19
    -18.044  0.1828E-21  0.5072E-21  0.4778E-21
    -17.960  0.1683E-23  0.4747E-23  0.4480E-23
    -17.875  0.0000E+00  0.0000E+00  0.0000E+00
    -17.791  0.0000E+00  0.0000E+00  0.0000E+00
    -17.707  0.0000E+00  0.0000E+00  0.0000E+00
    -17.623  0.0000E+00  0.0000E+00  0.0000E+00
    -17.538  0.0000E+00  0.0000E+00  0.0000E+00
    -17.454  0.0000E+00  0.0000E+00  0.0000E+00
    -17.370  0.0000E+00  0.0000E+00  0.0000E+00
    -17.285  0.0000E+00  0.0000E+00  0.0000E+00
    -17.201  0.0000E+00  0.0000E+00  0.0000E+00
    -17.117  0.0000E+00  0.0000E+00  0.0000E+00
    -17.033  0.0000E+00  0.0000E+00  0.0000E+00
    -16.948  0.0000E+00  0.0000E+00  0.0000E+00
    -16.864  0.0000E+00  0.0000E+00  0.0000E+00
    -16.780  0.0000E+00  0.0000E+00  0.0000E+00
    -16.696  0.0000E+00  0.0000E+00  0.0000E+00
    -16.611  0.0000E+00  0.0000E+00  0.0000E+00
    -16.527  0.0000E+00  0.0000E+00  0.0000E+00
    -16.443  0.0000E+00  0.0000E+00  0.0000E+00
    -16.358  0.0000E+00  0.0000E+00  0.0000E+00
    -16.274  0.0000E+00  0.0000E+00  0.0000E+00
    -16.190  0.0000E+00  0.0000E+00  0.0000E+00
    -16.106  0.0000E+00  0.0000E+00  0.0000E+00
    -16.021  0.0000E+00  0.0000E+00  0.0000E+00
    -15.937  0.0000E+00  0.0000E+00  0.0000E+00
    -15.853  0.0000E+00  0.0000E+00  0.0000E+00
    -15.768  0.0000E+00  0.0000E+00  0.0000E+00
    -15.684  0.0000E+00  0.0000E+00  0.0000E+00
    -15.600  0.0000E+00  0.0000E+00  0.0000E+00
    -15.516  0.0000E+00  0.0000E+00  0.0000E+00
    -15.431  0.0000E+00  0.0000E+00  0.0000E+00
    -15.347  0.0000E+00  0.0000E+00  0.0000E+00
    -15.263  0.0000E+00  0.0000E+00  0.0000E+00
    -15.178  0.0000E+00  0.0000E+00  0.0000E+00
    -15.094  0.0000E+00  0.0000E+00  0.0000E+00
    -15.010  0.0000E+00  0.0000E+00  0.0000E+00
    -14.926  0.0000E+00  0.0000E+00  0.0000E+00
    -14.841  0.0000E+00  0.0000E+00  0.0000E+00
    -14.757  0.0000E+00  0.0000E+00  0.0000E+00
    -14.673  0.0000E+00  0.0000E+00  0.0000E+00
    -14.588  0.0000E+00  0.0000E+00  0.0000E+00
    -14.504  0.0000E+00  0.0000E+00  0.0000E+00
    -14.420  0.0000E+00  0.0000E+00  0.0000E+00
    -14.336  0.0000E+00  0.0000E+00  0.0000E+00
    -14.251  0.0000E+00  0.0000E+00  0.0000E+00
    -14.167  0.0000E+00  0.0000E+00  0.0000E+00
    -14.083  0.0000E+00  0.0000E+00  0.0000E+00
    -13.999  0.0000E+00  0.0000E+00  0.0000E+00
    -13.914  0.0000E+00  0.0000E+00  0.0000E+00
    -13.830  0.0000E+00  0.0000E+00  0.0000E+00
    -13.746  0.0000E+00  0.0000E+00  0.0000E+00
    -13.661  0.0000E+00  0.0000E+00  0.0000E+00
    -13.577  0.0000E+00  0.0000E+00  0.0000E+00
    -13.493  0.0000E+00  0.0000E+00  0.0000E+00
    -13.409  0.0000E+00  0.0000E+00  0.0000E+00
    -13.324  0.0000E+00  0.0000E+00  0.0000E+00
    -13.240  0.0000E+00  0.0000E+00  0.0000E+00
    -13.156  0.0000E+00  0.0000E+00  0.0000E+00
    -13.071  0.0000E+00  0.0000E+00  0.0000E+00
    -12.987  0.0000E+00  0.0000E+00  0.0000E+00
    -12.903  0.0000E+00  0.0000E+00  0.0000E+00
    -12.819  0.0000E+00  0.0000E+00  0.0000E+00
    -12.734  0.0000E+00  0.0000E+00  0.0000E+00
    -12.650  0.0000E+00  0.0000E+00  0.0000E+00
    -12.566  0.0000E+00  0.0000E+00  0.0000E+00
    -12.481  0.0000E+00  0.0000E+00  0.0000E+00
    -12.397  0.0000E+00  0.0000E+00  0.0000E+00
    -12.313  0.0000E+00  0.0000E+00  0.0000E+00
    -12.229  0.0000E+00  0.0000E+00  0.0000E+00
    -12.144  0.0000E+00  0.0000E+00  0.0000E+00
    -12.060  0.0000E+00  0.0000E+00  0.0000E+00
    -11.976  0.0000E+00  0.0000E+00  0.0000E+00
    -11.891  0.0000E+00  0.0000E+00  0.0000E+00
    -11.807  0.0000E+00  0.0000E+00  0.0000E+00
    -11.723  0.0000E+00  0.0000E+00  0.0000E+00
    -11.639  0.0000E+00  0.0000E+00  0.0000E+00
    -11.554  0.0000E+00  0.0000E+00  0.0000E+00
    -11.470  0.0000E+00  0.0000E+00  0.0000E+00
    -11.386  0.0000E+00  0.0000E+00  0.0000E+00
    -11.302  0.0000E+00  0.0000E+00  0.0000E+00
    -11.217  0.0000E+00  0.0000E+00  0.0000E+00
    -11.133  0.0000E+00  0.0000E+00  0.0000E+00
    -11.049  0.0000E+00  0.0000E+00  0.0000E+00
    -10.964  0.0000E+00  0.0000E+00  0.0000E+00
    -10.880  0.0000E+00  0.0000E+00  0.0000E+00
    -10.796  0.0000E+00  0.0000E+00  0.0000E+00
    -10.712  0.0000E+00  0.0000E+00  0.0000E+00
    -10.627  0.0000E+00  0.0000E+00  0.0000E+00
    -10.543  0.0000E+00  0.0000E+00  0.0000E+00
    -10.459  0.0000E+00  0.0000E+00  0.0000E+00
    -10.374  0.0000E+00  0.0000E+00  0.0000E+00
    -10.290  0.0000E+00  0.0000E+00  0.0000E+00
    -10.206  0.0000E+00  0.0000E+00  0.0000E+00
    -10.122  0.0000E+00  0.0000E+00  0.0000E+00
    -10.037  0.0000E+00  0.0000E+00  0.0000E+00
     -9.953  0.0000E+00  0.0000E+00  0.0000E+00
     -9.869  0.0000E+00  0.0000E+00  0.0000E+00
     -9.784  0.0000E+00  0.0000E+00  0.0000E+00
     -9.700  0.0000E+00  0.0000E+00  0.0000E+00
     -9.616  0.0000E+00  0.0000E+00  0.0000E+00
     -9.532  0.0000E+00  0.0000E+00  0.0000E+00
     -9.447  0.2381E-15  0.1411E-17  0.1260E-17
     -9.363  0.2514E-13  0.1490E-15  0.1330E-15
     -9.279  0.1891E-11  0.1120E-13  0.1000E-13
     -9.194  0.1002E-09  0.5939E-12  0.5302E-12
     -9.110  0.3745E-08  0.2219E-10  0.1981E-10
     -9.026  0.9872E-07  0.5851E-09  0.5223E-09
     -8.942  0.1837E-05  0.1089E-07  0.9718E-08
     -8.857  0.2413E-04  0.1430E-06  0.1277E-06
     -8.773  0.2241E-03  0.1328E-05  0.1186E-05
     -8.689  0.1471E-02  0.8717E-05  0.7782E-05
     -8.605  0.6830E-02  0.4048E-04  0.3614E-04
     -8.520  0.2245E-01  0.1330E-03  0.1188E-03
     -8.436  0.5223E-01  0.3095E-03  0.2763E-03
     -8.352  0.8605E-01  0.5100E-03  0.4553E-03
     -8.267  0.1004E+00  0.5952E-03  0.5314E-03
     -8.183  0.8304E-01  0.4921E-03  0.4393E-03
     -8.099  0.4863E-01  0.2882E-03  0.2573E-03
     -8.015  0.2017E-01  0.1195E-03  0.1067E-03
     -7.930  0.5922E-02  0.3509E-04  0.3133E-04
     -7.846  0.1230E-02  0.7292E-05  0.6510E-05
     -7.762  0.1808E-03  0.1073E-05  0.9571E-06
     -7.677  0.1900E-04  0.1337E-06  0.1072E-06
     -7.593  0.4730E-05  0.3644E-06  0.1321E-06
     -7.509  0.3784E-04  0.4017E-05  0.1407E-05
     -7.425  0.3009E-03  0.3202E-04  0.1121E-04
     -7.340  0.1695E-02  0.1808E-03  0.6324E-04
     -7.256  0.6759E-02  0.7260E-03  0.2531E-03
     -7.172  0.1910E-01  0.2093E-02  0.7234E-03
     -7.087  0.3832E-01  0.4457E-02  0.1504E-02
     -7.003  0.5512E-01  0.7528E-02  0.2397E-02
     -6.919  0.5871E-01  0.1146E-01  0.3299E-02
     -6.835  0.5206E-01  0.1732E-01  0.4573E-02
     -6.750  0.5218E-01  0.2506E-01  0.6639E-02
     -6.666  0.7716E-01  0.3216E-01  0.9553E-02
     -6.582  0.1394E+00  0.3641E-01  0.1342E-01
     -6.497  0.2356E+00  0.3753E-01  0.1807E-01
     -6.413  0.3263E+00  0.3570E-01  0.2167E-01
     -6.329  0.3493E+00  0.3257E-01  0.2155E-01
     -6.245  0.2837E+00  0.3289E-01  0.1738E-01
     -6.160  0.1810E+00  0.4004E-01  0.1205E-01
     -6.076  0.1090E+00  0.5046E-01  0.8583E-02
     -5.992  0.8784E-01  0.5667E-01  0.7721E-02
     -5.908  0.9400E-01  0.5463E-01  0.8563E-02
     -5.823  0.1011E+00  0.4614E-01  0.1028E-01
     -5.739  0.1035E+00  0.3577E-01  0.1246E-01
     -5.655  0.1067E+00  0.2729E-01  0.1465E-01
     -5.570  0.1070E+00  0.2175E-01  0.1619E-01
     -5.486  0.9470E-01  0.1802E-01  0.1644E-01
     -5.402  0.7048E-01  0.1498E-01  0.1573E-01
     -5.318  0.4708E-01  0.1272E-01  0.1644E-01
     -5.233  0.3307E-01  0.1171E-01  0.2353E-01
     -5.149  0.2690E-01  0.1219E-01  0.4172E-01
     -5.065  0.2550E-01  0.1473E-01  0.6956E-01
     -4.980  0.2915E-01  0.2116E-01  0.9831E-01
     -4.896  0.3812E-01  0.3410E-01  0.1182E+00
     -4.812  0.4913E-01  0.5203E-01  0.1225E+00
     -4.728  0.5688E-01  0.6485E-01  0.1128E+00
     -4.643  0.6026E-01  0.6166E-01  0.1129E+00
     -4.559  0.6610E-01  0.4444E-01  0.1738E+00
     -4.475  0.8289E-01  0.2629E-01  0.3416E+00
     -4.390  0.1086E+00  0.1664E-01  0.5883E+00
     -4.306  0.1266E+00  0.1632E-01  0.7845E+00
     -4.222  0.1239E+00  0.2554E-01  0.8241E+00
     -4.138  0.1163E+00  0.4898E-01  0.7732E+00
     -4.053  0.1341E+00  0.8857E-01  0.7896E+00
     -3.969  0.1794E+00  0.1343E+00  0.9360E+00
     -3.885  0.2186E+00  0.1707E+00  0.1183E+01
     -3.800  0.2229E+00  0.1913E+00  0.1508E+01
     -3.716  0.1942E+00  0.1968E+00  0.1858E+01
     -3.632  0.1483E+00  0.1850E+00  0.2108E+01
     -3.548  0.9836E-01  0.1561E+00  0.2145E+01
     -3.463  0.5577E-01  0.1221E+00  0.2008E+01
     -3.379  0.2774E-01  0.1025E+00  0.1854E+01
     -3.295  0.1324E-01  0.1080E+00  0.1814E+01
     -3.211  0.6953E-02  0.1306E+00  0.1877E+01
     -3.126  0.4693E-02  0.1477E+00  0.1944E+01
     -3.042  0.4334E-02  0.1421E+00  0.1943E+01
     -2.958  0.5023E-02  0.1184E+00  0.1889E+01
     -2.873  0.6837E-02  0.9581E-01  0.1882E+01
     -2.789  0.1005E-01  0.8903E-01  0.2015E+01
     -2.705  0.1397E-01  0.9737E-01  0.2256E+01
     -2.621  0.1678E-01  0.1104E+00  0.2465E+01
     -2.536  0.1707E-01  0.1199E+00  0.2516E+01
     -2.452  0.1528E-01  0.1252E+00  0.2382E+01
     -2.368  0.1352E-01  0.1282E+00  0.2147E+01
     -2.283  0.1339E-01  0.1270E+00  0.1959E+01
     -2.199  0.1467E-01  0.1202E+00  0.1935E+01
     -2.115  0.1642E-01  0.1114E+00  0.2093E+01
     -2.031  0.1850E-01  0.1052E+00  0.2360E+01
     -1.946  0.2107E-01  0.1033E+00  0.2622E+01
     -1.862  0.2348E-01  0.1061E+00  0.2805E+01
     -1.778  0.2458E-01  0.1137E+00  0.2928E+01
     -1.693  0.2360E-01  0.1231E+00  0.2990E+01
     -1.609  0.2063E-01  0.1290E+00  0.2890E+01
     -1.525  0.1676E-01  0.1272E+00  0.2595E+01
     -1.441  0.1336E-01  0.1184E+00  0.2291E+01
     -1.356  0.1107E-01  0.1061E+00  0.2185E+01
     -1.272  0.9536E-02  0.9178E-01  0.2233E+01
     -1.188  0.8432E-02  0.7498E-01  0.2240E+01
     -1.103  0.7889E-02  0.5737E-01  0.2123E+01
     -1.019  0.7824E-02  0.4259E-01  0.1950E+01
     -0.935  0.7725E-02  0.3279E-01  0.1788E+01
     -0.851  0.7459E-02  0.2765E-01  0.1678E+01
     -0.766  0.7435E-02  0.2618E-01  0.1652E+01
     -0.682  0.7620E-02  0.2779E-01  0.1675E+01
     -0.598  0.7406E-02  0.3237E-01  0.1666E+01
     -0.514  0.6842E-02  0.3984E-01  0.1611E+01
     -0.429  0.7006E-02  0.4892E-01  0.1569E+01
     -0.345  0.8642E-02  0.5576E-01  0.1572E+01
     -0.261  0.1095E-01  0.5597E-01  0.1603E+01
     -0.176  0.1213E-01  0.4922E-01  0.1638E+01
     -0.092  0.1119E-01  0.3956E-01  0.1636E+01
     -0.008  0.8859E-02  0.3135E-01  0.1565E+01
      0.076  0.6680E-02  0.2682E-01  0.1441E+01
      0.161  0.5686E-02  0.2656E-01  0.1302E+01
      0.245  0.6271E-02  0.2970E-01  0.1154E+01
      0.329  0.8331E-02  0.3360E-01  0.9707E+00
      0.414  0.1076E-01  0.3517E-01  0.7436E+00
      0.498  0.1162E-01  0.3338E-01  0.5071E+00
      0.582  0.1003E-01  0.3019E-01  0.3104E+00
      0.666  0.7796E-02  0.2881E-01  0.1777E+00
      0.751  0.8026E-02  0.3077E-01  0.1050E+00
      0.835  0.1194E-01  0.3562E-01  0.7469E-01
      0.919  0.1710E-01  0.4373E-01  0.6772E-01
      1.004  0.1968E-01  0.5606E-01  0.6858E-01
      1.088  0.1873E-01  0.7027E-01  0.6656E-01
      1.172  0.1636E-01  0.8049E-01  0.5834E-01
      1.256  0.1405E-01  0.8195E-01  0.4776E-01
      1.341  0.1205E-01  0.7379E-01  0.3841E-01
      1.425  0.1152E-01  0.5874E-01  0.2964E-01
      1.509  0.1377E-01  0.4165E-01  0.2067E-01
      1.594  0.1710E-01  0.2690E-01  0.1283E-01
      1.678  0.1743E-01  0.1614E-01  0.7285E-02
      1.762  0.1319E-01  0.8763E-02  0.3777E-02
      1.846  0.7187E-02  0.4001E-02  0.1679E-02
      1.931  0.2789E-02  0.1425E-02  0.5911E-03
      2.015  0.7685E-03  0.3773E-03  0.1557E-03
      2.099  0.1500E-03  0.7230E-04  0.2976E-04
      2.183  0.2071E-04  0.9901E-05  0.4073E-05
      2.268  0.2023E-05  0.9632E-06  0.3960E-06
      2.352  0.1396E-06  0.6634E-07  0.2727E-07
      2.436  0.6799E-08  0.3230E-08  0.1328E-08
      2.521  0.2338E-09  0.1110E-09  0.4563E-10
      2.605  0.5669E-11  0.2691E-11  0.1106E-11
      2.689  0.9691E-13  0.4600E-13  0.1891E-13
      2.773  0.1162E-14  0.5516E-15  0.2267E-15
      2.858  0.1592E-16  0.7556E-17  0.3106E-17
      2.942  0.0000E+00  0.0000E+00  0.0000E+00
      3.026  0.0000E+00  0.0000E+00  0.0000E+00
      3.111  0.0000E+00  0.0000E+00  0.0000E+00
      3.195  0.0000E+00  0.0000E+00  0.0000E+00
      3.279  0.0000E+00  0.0000E+00  0.0000E+00
      3.363  0.0000E+00  0.0000E+00  0.0000E+00
      3.448  0.0000E+00  0.0000E+00  0.0000E+00
      3.532  0.0000E+00  0.0000E+00  0.0000E+00
      3.616  0.0000E+00  0.0000E+00  0.0000E+00
      3.61626617    -21.66812502  301     -0.18271375      1.00000000
    -21.668  0.0000E+00  0.0000E+00  0.0000E+00
    -21.584  0.0000E+00  0.0000E+00  0.0000E+00
    -21.500  0.0000E+00  0.0000E+00  0.0000E+00
    -21.415  0.0000E+00  0.0000E+00  0.0000E+00
    -21.331  0.0000E+00  0.0000E+00  0.0000E+00
    -21.247  0.0000E+00  0.0000E+00  0.0000E+00
    -21.162  0.0000E+00  0.0000E+00  0.0000E+00
    -21.078  0.0000E+00  0.0000E+00  0.0000E+00
    -20.994  0.0000E+00  0.0000E+00  0.0000E+00
    -20.910  0.0000E+00  0.0000E+00  0.0000E+00
    -20.825  0.3826E-22  0.2365E-22  0.3588E-23
    -20.741  0.3737E-20  0.2310E-20  0.3504E-21
    -20.657  0.3106E-18  0.1920E-18  0.2912E-19
    -20.572  0.1817E-16  0.1123E-16  0.1704E-17
    -20.488  0.7492E-15  0.4632E-15  0.7025E-16
    -20.404  0.2179E-13  0.1347E-13  0.2043E-14
    -20.320  0.4472E-12  0.2765E-12  0.4193E-13
    -20.235  0.6481E-11  0.4007E-11  0.6077E-12
    -20.151  0.6636E-10  0.4103E-10  0.6224E-11
    -20.067  0.4803E-09  0.2970E-09  0.4508E-10
    -19.982  0.2459E-08  0.1521E-08  0.2314E-09
    -19.898  0.8917E-08  0.5520E-08  0.8456E-09
    -19.814  0.2294E-07  0.1424E-07  0.2232E-08
    -19.730  0.4210E-07  0.2639E-07  0.4436E-08
    -19.645  0.5621E-07  0.3627E-07  0.7371E-08
    -19.561  0.5827E-07  0.4069E-07  0.1194E-07
    -19.477  0.5647E-07  0.4531E-07  0.1977E-07
    -19.393  0.6649E-07  0.5828E-07  0.3000E-07
    -19.308  0.9300E-07  0.7937E-07  0.3815E-07
    -19.224  0.1217E-06  0.9765E-07  0.3986E-07
    -19.140  0.1284E-06  0.9834E-07  0.3419E-07
    -19.055  0.1024E-06  0.7635E-07  0.2361E-07
    -18.971  0.5982E-07  0.4401E-07  0.1265E-07
    -18.887  0.2520E-07  0.1842E-07  0.5079E-08
    -18.803  0.7585E-08  0.5529E-08  0.1490E-08
    -18.718  0.1624E-08  0.1182E-08  0.3146E-09
    -18.634  0.2467E-09  0.1795E-09  0.4743E-10
    -18.550  0.2653E-10  0.1930E-10  0.5081E-11
    -18.465  0.2018E-11  0.1468E-11  0.3856E-12
    -18.381  0.1085E-12  0.7888E-13  0.2070E-13
    -18.297  0.4116E-14  0.2993E-14  0.7847E-15
    -18.213  0.1102E-15  0.8014E-16  0.2100E-16
    -18.128  0.2080E-17  0.1513E-17  0.3963E-18
    -18.044  0.2765E-19  0.2011E-19  0.5266E-20
    -17.960  0.2593E-21  0.1886E-21  0.4939E-22
    -17.875  0.0000E+00  0.0000E+00  0.0000E+00
    -17.791  0.0000E+00  0.0000E+00  0.0000E+00
    -17.707  0.0000E+00  0.0000E+00  0.0000E+00
    -17.623  0.0000E+00  0.0000E+00  0.0000E+00
    -17.538  0.0000E+00  0.0000E+00  0.0000E+00
    -17.454  0.0000E+00  0.0000E+00  0.0000E+00
    -17.370  0.0000E+00  0.0000E+00  0.0000E+00
    -17.285  0.0000E+00  0.0000E+00  0.0000E+00
    -17.201  0.0000E+00  0.0000E+00  0.0000E+00
    -17.117  0.0000E+00  0.0000E+00  0.0000E+00
    -17.033  0.0000E+00  0.0000E+00  0.0000E+00
    -16.948  0.0000E+00  0.0000E+00  0.0000E+00
    -16.864  0.0000E+00  0.0000E+00  0.0000E+00
    -16.780  0.0000E+00  0.0000E+00  0.0000E+00
    -16.696  0.0000E+00  0.0000E+00  0.0000E+00
    -16.611  0.0000E+00  0.0000E+00  0.0000E+00
    -16.527  0.0000E+00  0.0000E+00  0.0000E+00
    -16.443  0.0000E+00  0.0000E+00  0.0000E+00
    -16.358  0.0000E+00  0.0000E+00  0.0000E+00
    -16.274  0.0000E+00  0.0000E+00  0.0000E+00
    -16.190  0.0000E+00  0.0000E+00  0.0000E+00
    -16.106  0.0000E+00  0.0000E+00  0.0000E+00
    -16.021  0.0000E+00  0.0000E+00  0.0000E+00
    -15.937  0.0000E+00  0.0000E+00  0.0000E+00
    -15.853  0.0000E+00  0.0000E+00  0.0000E+00
    -15.768  0.0000E+00  0.0000E+00  0.0000E+00
    -15.684  0.0000E+00  0.0000E+00  0.0000E+00
    -15.600  0.0000E+00  0.0000E+00  0.0000E+00
    -15.516  0.0000E+00  0.0000E+00  0.0000E+00
    -15.431  0.0000E+00  0.0000E+00  0.0000E+00
    -15.347  0.0000E+00  0.0000E+00  0.0000E+00
    -15.263  0.0000E+00  0.0000E+00  0.0000E+00
    -15.178  0.0000E+00  0.0000E+00  0.0000E+00
    -15.094  0.0000E+00  0.0000E+00  0.0000E+00
    -15.010  0.0000E+00  0.0000E+00  0.0000E+00
    -14.926  0.0000E+00  0.0000E+00  0.0000E+00
    -14.841  0.0000E+00  0.0000E+00  0.0000E+00
    -14.757  0.0000E+00  0.0000E+00  0.0000E+00
    -14.673  0.0000E+00  0.0000E+00  0.0000E+00
    -14.588  0.0000E+00  0.0000E+00  0.0000E+00
    -14.504  0.0000E+00  0.0000E+00  0.0000E+00
    -14.420  0.0000E+00  0.0000E+00  0.0000E+00
    -14.336  0.0000E+00  0.0000E+00  0.0000E+00
    -14.251  0.0000E+00  0.0000E+00  0.0000E+00
    -14.167  0.0000E+00  0.0000E+00  0.0000E+00