       N       E                     dE             d eps       ncg     rms          rms(c)
DAV:   1     0.563398655989E+04    0.56340E+04   -0.30591E+05   732   0.201E+03
DAV:   2     0.234149762180E+03   -0.53998E+04   -0.52639E+04   732   0.443E+02
DAV:   3    -0.346143723141E+03   -0.58029E+03   -0.51738E+03   759   0.189E+02
DAV:   4    -0.435724638364E+03   -0.89581E+02   -0.83404E+02  1428   0.499E+01
DAV:   5    -0.445398981680E+03   -0.96743E+01   -0.92199E+01  1104   0.151E+01    0.379E+01
RMM:   6    -0.757671174721E+03   -0.31227E+03   -0.54112E+02   926   0.523E+01    0.170E+02
RMM:   7    -0.551058678227E+03    0.20661E+03   -0.26171E+02   733   0.507E+01    0.117E+02
RMM:   8    -0.460003169221E+03    0.91056E+02   -0.58311E+01   737   0.221E+01    0.615E+01
RMM:   9    -0.450459627453E+03    0.95435E+01   -0.21532E+01   738   0.103E+01    0.501E+01
RMM:  10    -0.445105972490E+03    0.53537E+01   -0.85601E+00   902   0.452E+00    0.387E+01
RMM:  11    -0.444579296737E+03    0.52668E+00   -0.73000E+00   736   0.630E+00    0.381E+01
RMM:  12    -0.444916038038E+03   -0.33674E+00   -0.86394E+00   734   0.722E+00    0.365E+01
RMM:  13    -0.451240386263E+03   -0.63243E+01   -0.16171E+01   742   0.105E+01    0.508E+01
RMM:  14    -0.444231826325E+03    0.70086E+01   -0.99600E+00   735   0.920E+00    0.319E+01
RMM:  15    -0.443026451495E+03    0.12054E+01   -0.52047E+00   736   0.594E+00    0.291E+01
RMM:  16    -0.443165583795E+03   -0.13913E+00   -0.45573E+00   737   0.567E+00    0.279E+01
RMM:  17    -0.441210776157E+03    0.19548E+01   -0.22404E+00   738   0.438E+00    0.178E+01
RMM:  18    -0.440406704920E+03    0.80407E+00   -0.78409E-01   742   0.242E+00    0.872E+00
RMM:  19    -0.440290458890E+03    0.11625E+00   -0.40871E-01   740   0.159E+00    0.712E+00
RMM:  20    -0.440425511455E+03   -0.13505E+00   -0.38031E-01   744   0.154E+00    0.939E+00
RMM:  21    -0.440252399454E+03    0.17311E+00   -0.18716E-01   738   0.119E+00    0.612E+00
RMM:  22    -0.440197664906E+03    0.54735E-01   -0.10791E-01   741   0.859E-01    0.474E+00
RMM:  23    -0.440224234375E+03   -0.26569E-01   -0.85112E-02   741   0.721E-01    0.559E+00
RMM:  24    -0.440226188026E+03   -0.19537E-02   -0.10437E-01   741   0.853E-01    0.527E+00
RMM:  25    -0.440169267573E+03    0.56920E-01   -0.72589E-02   736   0.773E-01    0.333E+00
RMM:  26    -0.440154844147E+03    0.14423E-01   -0.45827E-02   739   0.544E-01    0.262E+00
RMM:  27    -0.440153053582E+03    0.17906E-02   -0.30406E-02   753   0.419E-01    0.256E+00
RMM:  28    -0.440141245658E+03    0.11808E-01   -0.23445E-02   748   0.389E-01    0.195E+00
RMM:  29    -0.440133342967E+03    0.79027E-02   -0.10800E-02   764   0.245E-01    0.119E+00
RMM:  30    -0.440134914705E+03   -0.15717E-02   -0.90213E-03   756   0.217E-01    0.140E+00
RMM:  31    -0.440133557767E+03    0.13569E-02   -0.67921E-03   742   0.197E-01    0.118E+00
RMM:  32    -0.440129936818E+03    0.36209E-02   -0.44902E-03   740   0.181E-01    0.569E-01
RMM:  33    -0.440130403017E+03   -0.46620E-03   -0.32476E-03   756   0.137E-01    0.696E-01
RMM:  34    -0.440130176354E+03    0.22666E-03   -0.24747E-03   743   0.129E-01    0.591E-01
RMM:  35    -0.440129260356E+03    0.91600E-03   -0.13534E-03   742   0.105E-01    0.369E-01
RMM:  36    -0.440129203391E+03    0.56965E-04   -0.81174E-04   734   0.738E-02    0.333E-01
RMM:  37    -0.440129466765E+03   -0.26337E-03   -0.88603E-04   742   0.758E-02    0.395E-01
RMM:  38    -0.440129103902E+03    0.36286E-03   -0.48846E-04   737   0.640E-02    0.256E-01
RMM:  39    -0.440128967375E+03    0.13653E-03   -0.21134E-04   737   0.381E-02    0.134E-01
RMM:  40    -0.440129083205E+03   -0.11583E-03   -0.20590E-04   743   0.358E-02    0.224E-01
RMM:  41    -0.440129002716E+03    0.80489E-04   -0.12732E-04   743   0.314E-02    0.125E-01
RMM:  42    -0.440128973119E+03    0.29597E-04   -0.69588E-05   729   0.237E-02    0.816E-02
RMM:  43    -0.440128990153E+03   -0.17034E-04   -0.43886E-05   750   0.162E-02    0.869E-02
RMM:  44    -0.440128991407E+03   -0.12546E-05   -0.27984E-05   744   0.139E-02    0.538E-02
RMM:  45    -0.440128990164E+03    0.12436E-05   -0.12329E-05   727   0.942E-03    0.337E-02
RMM:  46    -0.440128999805E+03   -0.96414E-05   -0.99595E-06   707   0.779E-03    0.392E-02
RMM:  47    -0.440129011932E+03   -0.12126E-04   -0.63972E-06   608   0.689E-03    0.337E-02
RMM:  48    -0.440129013648E+03   -0.17163E-05   -0.32200E-06   477   0.567E-03    0.128E-02
RMM:  49    -0.440129017843E+03   -0.41948E-05   -0.17439E-06   415   0.371E-03    0.169E-02
RMM:  50    -0.440129025588E+03   -0.77451E-05   -0.18045E-06   422   0.415E-03    0.147E-02
RMM:  51    -0.440129031309E+03   -0.57214E-05   -0.13654E-06   401   0.380E-03    0.807E-03
RMM:  52    -0.440129034780E+03   -0.34707E-05   -0.59348E-07   397   0.224E-03    0.777E-03
RMM:  53    -0.440129039475E+03   -0.46955E-05   -0.55890E-07   397   0.225E-03    0.800E-03
RMM:  54    -0.440129045269E+03   -0.57939E-05   -0.54024E-07   399   0.190E-03    0.543E-03
RMM:  55    -0.440129047368E+03   -0.20991E-05   -0.30633E-07   392   0.163E-03    0.498E-03
RMM:  56    -0.440129050101E+03   -0.27323E-05   -0.31840E-07   386   0.160E-03    0.556E-03
RMM:  57    -0.440129053928E+03   -0.38272E-05   -0.39883E-07   388   0.163E-03    0.461E-03
RMM:  58    -0.440129055490E+03   -0.15625E-05   -0.20266E-07   386   0.113E-03    0.376E-03
RMM:  59    -0.440129056509E+03   -0.10182E-05   -0.13161E-07   377   0.101E-03    0.279E-03
RMM:  60    -0.440129060504E+03   -0.39958E-05   -0.35009E-07   384   0.973E-04    0.306E-03
RMM:  61    -0.440129060868E+03   -0.36354E-06   -0.14016E-07   368   0.114E-03
   1 F= -.45580093E+03 E0= -.45430801E+03  d E =-.298584E+01
       N       E                     dE             d eps       ncg     rms          rms(c)
DAV:   1    -0.440124708390E+03    0.43521E-02   -0.12156E+00   744   0.147E+00    0.192E-01
RMM:   2    -0.440130349077E+03   -0.56407E-02   -0.35531E-02   736   0.357E-01    0.875E-01
RMM:   3    -0.440128568989E+03    0.17801E-02   -0.31995E-03   743   0.129E-01    0.520E-01
RMM:   4    -0.440128258834E+03    0.31015E-03   -0.85472E-04   743   0.713E-02    0.409E-01
RMM:   5    -0.440128389745E+03   -0.13091E-03   -0.44520E-04   738   0.535E-02    0.442E-01
RMM:   6    -0.440128309019E+03    0.80727E-04   -0.34298E-04   735   0.497E-02    0.416E-01
RMM:   7    -0.440128028616E+03    0.28040E-03   -0.29116E-04   735   0.495E-02    0.261E-01
RMM:   8    -0.440129109924E+03   -0.10813E-02   -0.11258E-03   734   0.866E-02    0.633E-01
RMM:   9    -0.440128986264E+03    0.12366E-03   -0.14538E-03   736   0.103E-01    0.559E-01
RMM:  10    -0.440128298637E+03    0.68763E-03   -0.10503E-03   736   0.941E-02    0.387E-01
RMM:  11    -0.440127974139E+03    0.32450E-03   -0.51589E-04   736   0.629E-02    0.213E-01
RMM:  12    -0.440128089762E+03   -0.11562E-03   -0.36063E-04   741   0.492E-02    0.286E-01
RMM:  13    -0.440127900739E+03    0.18902E-03   -0.16511E-04   736   0.372E-02    0.147E-01
RMM:  14    -0.440127844581E+03    0.56158E-04   -0.60372E-05   732   0.224E-02    0.702E-02
RMM:  15    -0.440127839567E+03    0.50139E-05   -0.27297E-05   730   0.135E-02    0.559E-02
RMM:  16    -0.440127847110E+03   -0.75429E-05   -0.21438E-05   728   0.120E-02    0.736E-02
RMM:  17    -0.440127832493E+03    0.14617E-04   -0.11576E-05   727   0.101E-02    0.319E-02
RMM:  18    -0.440127831494E+03    0.99963E-06   -0.50843E-06   560   0.642E-03
   2 F= -.45579968E+03 E0= -.45430645E+03  d E =-.298646E+01
       N       E                     dE             d eps       ncg     rms          rms(c)
DAV:   1    -0.440113263385E+03    0.14569E-01   -0.48367E+00   744   0.292E+00    0.396E-01
RMM:   2    -0.440138458520E+03   -0.25195E-01   -0.16161E-01   741   0.740E-01    0.181E+00
RMM:   3    -0.440130918355E+03    0.75402E-02   -0.12437E-02   740   0.272E-01    0.109E+00
RMM:   4    -0.440130074851E+03    0.84350E-03   -0.43011E-03   740   0.163E-01    0.972E-01
RMM:   5    -0.440130034628E+03    0.40223E-04   -0.20658E-03   739   0.118E-01    0.914E-01
RMM:   6    -0.440129699336E+03    0.33529E-03   -0.16789E-03   736   0.111E-01    0.869E-01
RMM:   7    -0.440128428006E+03    0.12713E-02   -0.12546E-03   735   0.103E-01    0.541E-01
RMM:   8    -0.440131328103E+03   -0.29001E-02   -0.30861E-03   736   0.143E-01    0.114E+00
RMM:   9    -0.440133891948E+03   -0.25638E-02   -0.68504E-03   737   0.215E-01    0.134E+00
RMM:  10    -0.440130133417E+03    0.37585E-02   -0.48926E-03   736   0.203E-01    0.878E-01
RMM:  11    -0.440127956586E+03    0.21768E-02   -0.21368E-03   735   0.131E-01    0.349E-01
RMM:  12    -0.440127969877E+03   -0.13292E-04   -0.10260E-03   736   0.821E-02    0.354E-01
RMM:  13    -0.440127940902E+03    0.28975E-04   -0.59492E-04   740   0.645E-02    0.339E-01
RMM:  14    -0.440127619044E+03    0.32186E-03   -0.29132E-04   733   0.506E-02    0.166E-01
RMM:  15    -0.440127558077E+03    0.60966E-04   -0.11295E-04   733   0.287E-02    0.955E-02
RMM:  16    -0.440127578527E+03   -0.20450E-04   -0.79706E-05   731   0.229E-02    0.125E-01
RMM:  17    -0.440127542975E+03    0.35552E-04   -0.44186E-05   736   0.188E-02    0.737E-02
RMM:  18    -0.440127530330E+03    0.12645E-04   -0.21282E-05   731   0.132E-02    0.430E-02
RMM:  19    -0.440127538322E+03   -0.79923E-05   -0.20756E-05   728   0.116E-02    0.680E-02
RMM:  20    -0.440127543868E+03   -0.55462E-05   -0.22601E-05   731   0.122E-02    0.797E-02
RMM:  21    -0.440127527795E+03    0.16073E-04   -0.13825E-05   729   0.109E-02    0.346E-02
RMM:  22    -0.440127524729E+03    0.30655E-05   -0.43932E-06   549   0.610E-03    0.143E-02
RMM:  23    -0.440127525456E+03   -0.72666E-06   -0.19305E-06   410   0.404E-03
   3 F= -.45579940E+03 E0= -.45430674E+03  d E =-.298532E+01
       N       E                     dE             d eps       ncg     rms          rms(c)
DAV:   1    -0.440113020278E+03    0.14504E-01   -0.24494E+00   732   0.210E+00    0.295E-01
RMM:   2    -0.440130467025E+03   -0.17447E-01   -0.78500E-02   748   0.551E-01    0.190E+00
RMM:   3    -0.440120721635E+03    0.97454E-02   -0.76106E-03   737   0.228E-01    0.537E-01
RMM:   4    -0.440121512446E+03   -0.79081E-03   -0.21248E-03   785   0.100E-01    0.815E-01
RMM:   5    -0.440120682872E+03    0.82957E-03   -0.98539E-04   738   0.830E-02    0.583E-01
RMM:   6    -0.440120151742E+03    0.53113E-03   -0.65758E-04   735   0.742E-02    0.417E-01
RMM:   7    -0.440120327655E+03   -0.17591E-03   -0.86841E-04   736   0.796E-02    0.448E-01
RMM:   8    -0.440123676311E+03   -0.33487E-02   -0.30891E-03   735   0.142E-01    0.115E+00
RMM:   9    -0.440121304137E+03    0.23722E-02   -0.25855E-03   736   0.146E-01    0.726E-01
RMM:  10    -0.440120175097E+03    0.11290E-02   -0.13583E-03   736   0.107E-01    0.404E-01
RMM:  11    -0.440120675230E+03   -0.50013E-03   -0.12388E-03   737   0.908E-02    0.587E-01
RMM:  12    -0.440120148897E+03    0.52633E-03   -0.75787E-04   744   0.759E-02    0.354E-01
RMM:  13    -0.440119824143E+03    0.32475E-03   -0.38715E-04   733   0.576E-02    0.198E-01
RMM:  14    -0.440119717125E+03    0.10702E-03   -0.12455E-04   732   0.309E-02    0.899E-02
RMM:  15    -0.440119733247E+03   -0.16122E-04   -0.69188E-05   733   0.209E-02    0.118E-01
RMM:  16    -0.440119715641E+03    0.17607E-04   -0.41212E-05   739   0.173E-02    0.907E-02
RMM:  17    -0.440119693736E+03    0.21905E-04   -0.21145E-05   729   0.133E-02    0.417E-02
RMM:  18    -0.440119693085E+03    0.65084E-06   -0.12372E-05   726   0.943E-03    0.353E-02
RMM:  19    -0.440119701405E+03   -0.83197E-05   -0.17053E-05   729   0.105E-02    0.615E-02
RMM:  20    -0.440119692399E+03    0.90053E-05   -0.96890E-06   722   0.918E-03    0.365E-02
RMM:  21    -0.440119689450E+03    0.29491E-05   -0.41957E-06   530   0.593E-03    0.180E-02
RMM:  22    -0.440119689996E+03   -0.54581E-06   -0.22983E-06   420   0.446E-03
   4 F= -.45579153E+03 E0= -.45429847E+03  d E =-.298610E+01
       N       E                     dE             d eps       ncg     rms          rms(c)
DAV:   1    -0.440122196453E+03   -0.25070E-02   -0.48886E+00   732   0.299E+00    0.447E-01
RMM:   2    -0.440161743372E+03   -0.39547E-01   -0.17462E-01   748   0.803E-01    0.283E+00
RMM:   3    -0.440138786187E+03    0.22957E-01   -0.17096E-02   738   0.352E-01    0.724E-01
RMM:   4    -0.440142500391E+03   -0.37142E-02   -0.61494E-03   756   0.187E-01    0.141E+00
RMM:   5    -0.440139885194E+03    0.26152E-02   -0.26816E-03   737   0.140E-01    0.103E+00
RMM:   6    -0.440138641000E+03    0.12442E-02   -0.19185E-03   736   0.122E-01    0.838E-01
RMM:   7    -0.440138379490E+03    0.26151E-03   -0.20153E-03   736   0.120E-01    0.797E-01
RMM:   8    -0.440140089407E+03   -0.17099E-02   -0.32477E-03   737   0.149E-01    0.102E+00
RMM:   9    -0.440143021563E+03   -0.29322E-02   -0.63532E-03   737   0.209E-01    0.135E+00
RMM:  10    -0.440137946137E+03    0.50754E-02   -0.39014E-03   736   0.190E-01    0.580E-01
RMM:  11    -0.440137316264E+03    0.62987E-03   -0.18041E-03   736   0.114E-01    0.444E-01
RMM:  12    -0.440137675654E+03   -0.35939E-03   -0.12797E-03   740   0.921E-02    0.550E-01
RMM:  13    -0.440137112520E+03    0.56313E-03   -0.75377E-04   739   0.776E-02    0.348E-01
RMM:  14    -0.440136774816E+03    0.33770E-03   -0.28970E-04   734   0.501E-02    0.132E-01
RMM:  15    -0.440136772973E+03    0.18432E-05   -0.14292E-04   730   0.311E-02    0.135E-01
RMM:  16    -0.440136770061E+03    0.29121E-05   -0.85978E-05   737   0.243E-02    0.137E-01
RMM:  17    -0.440136729457E+03    0.40604E-04   -0.47764E-05   734   0.197E-02    0.806E-02
RMM:  18    -0.440136714365E+03    0.15092E-04   -0.24642E-05   731   0.139E-02    0.407E-02
RMM:  19    -0.440136729537E+03   -0.15172E-04   -0.27116E-05   730   0.133E-02    0.771E-02
RMM:  20    -0.440136716890E+03    0.12648E-04   -0.18259E-05   732   0.122E-02    0.507E-02
RMM:  21    -0.440136709508E+03    0.73819E-05   -0.83967E-06   708   0.857E-03    0.212E-02
RMM:  22    -0.440136709671E+03   -0.16332E-06   -0.31990E-06   475   0.491E-03
   5 F= -.45580861E+03 E0= -.45431579E+03  d E =-.298564E+01
       N       E                     dE             d eps       ncg     rms          rms(c)
DAV:   1    -0.440109825813E+03    0.26884E-01   -0.24300E+00   732   0.212E+00    0.337E-01
RMM:   2    -0.440128529167E+03   -0.18703E-01   -0.98687E-02   744   0.572E-01    0.184E+00
RMM:   3    -0.440119573882E+03    0.89553E-02   -0.85705E-03   738   0.248E-01    0.624E-01
RMM:   4    -0.440124392967E+03   -0.48191E-02   -0.35896E-03   753   0.144E-01    0.149E+00
RMM:   5    -0.440119557228E+03    0.48357E-02   -0.16028E-03   738   0.111E-01    0.640E-01
RMM:   6    -0.440118617007E+03    0.94022E-03   -0.88287E-04   736   0.873E-02    0.392E-01
RMM:   7    -0.440119369306E+03   -0.75230E-03   -0.17004E-03   735   0.108E-01    0.618E-01
RMM:   8    -0.440121968937E+03   -0.25996E-02   -0.32208E-03   737   0.146E-01    0.113E+00
RMM:   9    -0.440120384196E+03    0.15847E-02   -0.29181E-03   736   0.152E-01    0.864E-01
RMM:  10    -0.440118733880E+03    0.16503E-02   -0.15660E-03   736   0.114E-01    0.421E-01
RMM:  11    -0.440119091245E+03   -0.35737E-03   -0.14017E-03   736   0.962E-02    0.539E-01
RMM:  12    -0.440118648134E+03    0.44311E-03   -0.86108E-04   739   0.799E-02    0.371E-01
RMM:  13    -0.440118286081E+03    0.36205E-03   -0.42790E-04   740   0.606E-02    0.192E-01
RMM:  14    -0.440118224381E+03    0.61700E-04   -0.16847E-04   733   0.352E-02    0.134E-01
RMM:  15    -0.440118254639E+03   -0.30258E-04   -0.12411E-04   732   0.286E-02    0.164E-01
RMM:  16    -0.440118208231E+03    0.46408E-04   -0.68414E-05   734   0.236E-02    0.116E-01
RMM:  17    -0.440118171747E+03    0.36484E-04   -0.27979E-05   730   0.155E-02    0.395E-02
RMM:  18    -0.440118171888E+03   -0.14056E-06   -0.13286E-05   725   0.937E-03    0.374E-02
RMM:  19    -0.440118179371E+03   -0.74834E-05   -0.14103E-05   731   0.959E-03    0.551E-02
RMM:  20    -0.440118174298E+03    0.50725E-05   -0.92336E-06   712   0.875E-03    0.364E-02
RMM:  21    -0.440118172359E+03    0.19399E-05   -0.43929E-06   534   0.612E-03    0.196E-02
RMM:  22    -0.440118174515E+03   -0.21561E-05   -0.35278E-06   487   0.536E-03    0.272E-02
RMM:  23    -0.440118174246E+03    0.26867E-06   -0.22874E-06   417   0.515E-03
   6 F= -.45578972E+03 E0= -.45429688E+03  d E =-.298568E+01
       N       E                     dE             d eps       ncg     rms          rms(c)
DAV:   1    -0.440121568596E+03   -0.33941E-02   -0.48832E+00   732   0.303E+00    0.465E-01
RMM:   2    -0.440141889048E+03   -0.20320E-01   -0.17582E-01   903   0.704E-01    0.119E+00
RMM:   3    -0.440142191037E+03   -0.30199E-03   -0.12020E-02   740   0.268E-01    0.143E+00
RMM:   4    -0.440144654210E+03   -0.24632E-02   -0.59334E-03   742   0.196E-01    0.165E+00
RMM:   5    -0.440138935367E+03    0.57188E-02   -0.22635E-03   738   0.136E-01    0.714E-01
RMM:   6    -0.440141118644E+03   -0.21833E-02   -0.34399E-03   736   0.157E-01    0.124E+00
RMM:   7    -0.440141313946E+03   -0.19530E-03   -0.56155E-03   737   0.196E-01    0.109E+00
RMM:   8    -0.440144412869E+03   -0.30989E-02   -0.72096E-03   736   0.226E-01    0.151E+00
RMM:   9    -0.440139246969E+03    0.51659E-02   -0.49800E-03   733   0.209E-01    0.827E-01
RMM:  10    -0.440138692038E+03    0.55493E-03   -0.33368E-03   734   0.158E-01    0.751E-01
RMM:  11    -0.440138925775E+03   -0.23374E-03   -0.34822E-03   737   0.157E-01    0.714E-01
RMM:  12    -0.440138204897E+03    0.72088E-03   -0.21102E-03   742   0.129E-01    0.651E-01
RMM:  13    -0.440137047936E+03    0.11570E-02   -0.72929E-04   736   0.798E-02    0.177E-01
RMM:  14    -0.440137031645E+03    0.16292E-04   -0.22223E-04   741   0.372E-02    0.172E-01
RMM:  15    -0.440137036780E+03   -0.51359E-05   -0.16385E-04   736   0.326E-02    0.163E-01
RMM:  16    -0.440136984268E+03    0.52512E-04   -0.81124E-05   737   0.257E-02    0.114E-01
RMM:  17    -0.440136953484E+03    0.30784E-04   -0.40488E-05   730   0.178E-02    0.577E-02
RMM:  18    -0.440136962476E+03   -0.89917E-05   -0.26900E-05   731   0.133E-02    0.769E-02
RMM:  19    -0.440136959360E+03    0.31161E-05   -0.25013E-05   740   0.133E-02    0.628E-02
RMM:  20    -0.440136952881E+03    0.64782E-05   -0.15705E-05   729   0.115E-02    0.456E-02
RMM:  21    -0.440136954767E+03   -0.18857E-05   -0.13958E-05   724   0.990E-03    0.455E-02
RMM:  22    -0.440136959559E+03   -0.47920E-05   -0.12372E-05   725   0.942E-03    0.517E-02
RMM:  23    -0.440136952574E+03    0.69849E-05   -0.58499E-06   633   0.751E-03    0.175E-02
RMM:  24    -0.440136952362E+03    0.21236E-06   -0.14330E-06   396   0.360E-03
   7 F= -.45580913E+03 E0= -.45431615E+03  d E =-.298596E+01
