 vasp.5.4.4.18Apr17-6-g9f103f2a35 (build Dec 15 2018 21:27:54) gamma-only       
  
 executed on             LinuxIFC date 2022.03.12  00:21:37
 running on   72 total cores
 distrk:  each k-point on   72 cores,    1 groups
 distr:  one band on NCORES_PER_BAND=  24 cores,    3 groups


--------------------------------------------------------------------------------------------------------


 INCAR:
 POTCAR:    PAW_PBE Ni 02Aug2007                  
 POTCAR:    PAW_PBE Fe 06Sep2000                  
 POTCAR:    PAW_PBE O 08Apr2002                   

 ----------------------------------------------------------------------------- 
|                                                                             |
|           W    W    AA    RRRRR   N    N  II  N    N   GGGG   !!!           |
|           W    W   A  A   R    R  NN   N  II  NN   N  G    G  !!!           |
|           W    W  A    A  R    R  N N  N  II  N N  N  G       !!!           |
|           W WW W  AAAAAA  RRRRR   N  N N  II  N  N N  G  GGG   !            |
|           WW  WW  A    A  R   R   N   NN  II  N   NN  G    G                |
|           W    W  A    A  R    R  N    N  II  N    N   GGGG   !!!           |
|                                                                             |
|      For optimal performance we recommend to set                            |
|        NCORE= 4 - approx SQRT( number of cores)                             |
|      NCORE specifies how many cores store one orbital (NPAR=cpu/NCORE).     |
|      This setting can  greatly improve the performance of VASP for DFT.     |
|      The default,   NCORE=1            might be grossly inefficient         |
|      on modern multi-core architectures or massively parallel machines.     |
|      Do your own testing !!!!                                               |
|      Unfortunately you need to use the default for GW and RPA calculations. |
|      (for HF NCORE is supported but not extensively tested yet)             |
|                                                                             |
 ----------------------------------------------------------------------------- 

 POTCAR:    PAW_PBE Ni 02Aug2007                  
   VRHFIN =Ni:                                                                  
   LEXCH  = PE                                                                  
   EATOM  =  1077.6739 eV,   79.2068 Ry                                         
                                                                                
   TITEL  = PAW_PBE Ni 02Aug2007                                                
   LULTRA =        F    use ultrasoft PP ?                                      
   IUNSCR =        1    unscreen: 0-lin 1-nonlin 2-no                           
   RPACOR =    2.000    partial core radius                                     
   POMASS =   58.690; ZVAL   =   10.000    mass and valenz                      
   RCORE  =    2.300    outmost cutoff radius                                   
   RWIGS  =    2.430; RWIGS  =    1.286    wigner-seitz radius (au A)           
   ENMAX  =  269.532; ENMIN  =  202.149 eV                                      
   RCLOC  =    1.201    cutoff for local pot                                    
   LCOR   =        T    correct aug charges                                     
   LPAW   =        T    paw PP                                                  
   EAUG   =  544.565                                                            
   DEXC   =    0.000                                                            
   RMAX   =    2.357    core radius for proj-oper                               
   RAUG   =    1.300    factor for augmentation sphere                          
   RDEP   =    2.390    radius for radial grids                                 
   RDEPT  =    1.838    core radius for aug-charge                              
                                                                                
   Atomic configuration                                                         
    9 entries                                                                   
     n  l   j            E        occ.                                          
     1  0  0.50     -8206.4253   2.0000                                         
     2  0  0.50      -976.1748   2.0000                                         
     2  1  1.50      -839.0571   6.0000                                         
     3  0  0.50      -105.9991   2.0000                                         
     3  1  1.50       -66.4603   6.0000                                         
     3  2  2.50        -4.6458   9.0000                                         
     4  0  0.50        -4.4926   1.0000                                         
     4  1  1.50        -4.0817   0.0000                                         
     4  3  2.50        -1.3606   0.0000                                         
   Description                                                                  
     l       E           TYP  RCUT    TYP  RCUT                                 
     2     -4.6457903     23  2.300                                             
     2     -6.0063729     23  2.300                                             
     0     -4.4925590     23  2.300                                             
     0      5.0102601     23  2.300                                             
     1     -2.7211652     23  2.300                                             
     1     16.5183231     23  2.300                                             
  local pseudopotential read in
  partial core-charges read in
  partial kinetic energy density read in
  atomic valenz-charges read in
  non local Contribution for L=           2  read in
    real space projection operators read in
  non local Contribution for L=           2  read in
    real space projection operators read in
  non local Contribution for L=           0  read in
    real space projection operators read in
  non local Contribution for L=           0  read in
    real space projection operators read in
  non local Contribution for L=           1  read in
    real space projection operators read in
  non local Contribution for L=           1  read in
    real space projection operators read in
    PAW grid and wavefunctions read in
 
   number of l-projection  operators is LMAX  =           6
   number of lm-projection operators is LMMAX =          18
 
 POTCAR:    PAW_PBE Fe 06Sep2000                  
   VRHFIN =Fe:  d7 s1                                                           
   LEXCH  = PE                                                                  
   EATOM  =   594.3153 eV,   43.6809 Ry                                         
                                                                                
   TITEL  = PAW_PBE Fe 06Sep2000                                                
   LULTRA =        F    use ultrasoft PP ?                                      
   IUNSCR =        1    unscreen: 0-lin 1-nonlin 2-no                           
   RPACOR =    2.000    partial core radius                                     
   POMASS =   55.847; ZVAL   =    8.000    mass and valenz                      
   RCORE  =    2.300    outmost cutoff radius                                   
   RWIGS  =    2.460; RWIGS  =    1.302    wigner-seitz radius (au A)           
   ENMAX  =  267.882; ENMIN  =  200.911 eV                                      
   RCLOC  =    1.701    cutoff for local pot                                    
   LCOR   =        T    correct aug charges                                     
   LPAW   =        T    paw PP                                                  
   EAUG   =  511.368                                                            
   DEXC   =    0.000                                                            
   RMAX   =    2.356    core radius for proj-oper                               
   RAUG   =    1.300    factor for augmentation sphere                          
   RDEP   =    2.442    radius for radial grids                                 
   RDEPT  =    1.890    core radius for aug-charge                              
                                                                                
   Atomic configuration                                                         
    9 entries                                                                   
     n  l   j            E        occ.                                          
     1  0  0.50     -6993.8440   2.0000                                         
     2  0  0.50      -814.6047   2.0000                                         
     2  1  1.50      -693.3689   6.0000                                         
     3  0  0.50       -89.4732   2.0000                                         
     3  1  1.50       -55.6373   6.0000                                         
     3  2  2.50        -3.8151   7.0000                                         
     4  0  0.50        -4.2551   1.0000                                         
     4  1  1.50        -3.4015   0.0000                                         
     4  3  2.50        -1.3606   0.0000                                         
   Description                                                                  
     l       E           TYP  RCUT    TYP  RCUT                                 
     2     -3.8151135     23  2.300                                             
     2     -5.1756961     23  2.300                                             
     0     -4.2550963     23  2.300                                             
     0      7.2035603     23  2.300                                             
     1     -2.7211652     23  2.300                                             
     1     18.4316424     23  2.300                                             
  local pseudopotential read in
  partial core-charges read in
  partial kinetic energy density read in
  atomic valenz-charges read in
  non local Contribution for L=           2  read in
    real space projection operators read in
  non local Contribution for L=           2  read in
    real space projection operators read in
  non local Contribution for L=           0  read in
    real space projection operators read in
  non local Contribution for L=           0  read in
    real space projection operators read in
  non local Contribution for L=           1  read in
    real space projection operators read in
  non local Contribution for L=           1  read in
    real space projection operators read in
    PAW grid and wavefunctions read in
 
   number of l-projection  operators is LMAX  =           6
   number of lm-projection operators is LMMAX =          18
 
 POTCAR:    PAW_PBE O 08Apr2002                   
   VRHFIN =O: s2p4                                                              
   LEXCH  = PE                                                                  
   EATOM  =   432.3788 eV,   31.7789 Ry                                         
                                                                                
   TITEL  = PAW_PBE O 08Apr2002                                                 
   LULTRA =        F    use ultrasoft PP ?                                      
   IUNSCR =        1    unscreen: 0-lin 1-nonlin 2-no                           
   RPACOR =    1.200    partial core radius                                     
   POMASS =   16.000; ZVAL   =    6.000    mass and valenz                      
   RCORE  =    1.520    outmost cutoff radius                                   
   RWIGS  =    1.550; RWIGS  =    0.820    wigner-seitz radius (au A)           
   ENMAX  =  400.000; ENMIN  =  300.000 eV                                      
   ICORE  =        2    local potential                                         
   LCOR   =        T    correct aug charges                                     
   LPAW   =        T    paw PP                                                  
   EAUG   =  605.392                                                            
   DEXC   =    0.000                                                            
   RMAX   =    1.553    core radius for proj-oper                               
   RAUG   =    1.300    factor for augmentation sphere                          
   RDEP   =    1.550    radius for radial grids                                 
   RDEPT  =    1.329    core radius for aug-charge                              
                                                                                
   Atomic configuration                                                         
    4 entries                                                                   
     n  l   j            E        occ.                                          
     1  0  0.50      -514.6923   2.0000                                         
     2  0  0.50       -23.9615   2.0000                                         
     2  1  0.50        -9.0305   4.0000                                         
     3  2  1.50        -9.5241   0.0000                                         
   Description                                                                  
     l       E           TYP  RCUT    TYP  RCUT                                 
     0    -23.9615318     23  1.200                                             
     0     -9.5240782     23  1.200                                             
     1     -9.0304911     23  1.520                                             
     1      8.1634956     23  1.520                                             
     2     -9.5240782      7  1.500                                             
  local pseudopotential read in
  partial core-charges read in
  partial kinetic energy density read in
  kinetic energy density of atom read in
  atomic valenz-charges read in
  non local Contribution for L=           0  read in
    real space projection operators read in
  non local Contribution for L=           0  read in
    real space projection operators read in
  non local Contribution for L=           1  read in
    real space projection operators read in
  non local Contribution for L=           1  read in
    real space projection operators read in
    PAW grid and wavefunctions read in
 
   number of l-projection  operators is LMAX  =           4
   number of lm-projection operators is LMMAX =           8
 
 Optimization of the real space projectors (new method)

 maximal supplied QI-value         = 16.25
 optimisation between [QCUT,QGAM] = [ 11.54, 23.24] = [ 37.28,151.24] Ry 
 Optimized for a Real-space Cutoff    1.45 Angstroem

   l    n(q)    QCUT    max X(q) W(low)/X(q) W(high)/X(q)  e(spline) 
   2      9    11.539    60.317    0.19E-03    0.47E-04    0.16E-06
   2      9    11.539    55.921    0.19E-03    0.48E-04    0.16E-06
   0     10    11.539    51.690    0.80E-04    0.50E-04    0.24E-06
   0     10    11.539    30.015    0.73E-04    0.45E-04    0.22E-06
   1     10    11.539    18.849    0.87E-04    0.16E-03    0.71E-07
   1     10    11.539    14.624    0.73E-04    0.13E-03    0.64E-07
 Optimization of the real space projectors (new method)

 maximal supplied QI-value         = 16.25
 optimisation between [QCUT,QGAM] = [ 11.54, 23.24] = [ 37.28,151.24] Ry 
 Optimized for a Real-space Cutoff    1.53 Angstroem

   l    n(q)    QCUT    max X(q) W(low)/X(q) W(high)/X(q)  e(spline) 
   2     10    11.539    80.901    0.11E-03    0.14E-03    0.21E-06
   2     10    11.539    75.754    0.11E-03    0.14E-03    0.22E-06
   0     11    11.539    58.752    0.52E-04    0.18E-04    0.33E-06
   0     11    11.539    30.679    0.44E-04    0.16E-04    0.30E-06
   1     10    11.539    17.977    0.53E-04    0.29E-04    0.13E-06
   1     10    11.539    13.559    0.44E-04    0.25E-04    0.11E-06
 Optimization of the real space projectors (new method)

 maximal supplied QI-value         = 24.76
 optimisation between [QCUT,QGAM] = [ 11.64, 23.27] = [ 37.91,151.63] Ry 
 Optimized for a Real-space Cutoff    1.14 Angstroem

   l    n(q)    QCUT    max X(q) W(low)/X(q) W(high)/X(q)  e(spline) 
   0      8    11.635    20.381    0.10E-03    0.33E-03    0.24E-06
   0      8    11.635    15.268    0.11E-03    0.35E-03    0.26E-06
   1      7    11.635     5.964    0.24E-03    0.31E-03    0.30E-06
   1      7    11.635     5.382    0.22E-03    0.25E-03    0.26E-06
  PAW_PBE Ni 02Aug2007                  :
 energy of atom  1       EATOM=-1077.6739
 kinetic energy error for atom=    0.0030 (will be added to EATOM!!)
  PAW_PBE Fe 06Sep2000                  :
 energy of atom  2       EATOM= -594.3153
 kinetic energy error for atom=    0.0026 (will be added to EATOM!!)
  PAW_PBE O 08Apr2002                   :
 energy of atom  3       EATOM= -432.3788
 kinetic energy error for atom=    0.0208 (will be added to EATOM!!)
 
 
 POSCAR: POSCAR                                  
  positions in direct lattice
  velocities in cartesian coordinates
 exchange correlation table for  LEXCH =        8
   RHO(1)=    0.500       N(1)  =     2000
   RHO(2)=  100.500       N(2)  =     4000

 VTST: version 3.2, (02/03/18)

 CHAIN: initializing optimizer
 
 OPT: Using VASP Dynamics algorithm
 CHAIN: Read ICHAIN            0
 
 POSCAR: POSCAR                                  
  positions in direct lattice
  velocities in cartesian coordinates
 


--------------------------------------------------------------------------------------------------------


 ion  position               nearest neighbor table
   1  0.999  0.001  0.191-  35 2.47  59 2.49  23 2.50  32 2.50   5 2.52  40 2.52  37 2.52   2 2.53
                             4 2.53  21 2.54  62 2.54  34 2.54
   2  0.248  0.999  0.192-  59 2.46  50 2.47   6 2.47  36 2.48  37 2.50  60 2.50   3 2.51  28 2.52
                             5 2.52  21 2.53   1 2.53   8 2.56
   3  0.499  0.002  0.192-  39 2.43  61 2.47  36 2.49  30 2.50  60 2.50  34 2.51   2 2.51   8 2.52
                            11 2.52   7 2.53  50 2.54  51 2.54
   4  0.998  0.251  0.192-  35 2.47  43 2.48  42 2.49  19 2.50  34 2.50  13 2.50   7 2.53   1 2.53
                            40 2.53   5 2.55  46 2.55  10 2.55
   5  0.249  0.249  0.191-  35 2.48  36 2.48  45 2.50   6 2.50  37 2.50  46 2.50   1 2.52  42 2.52
                             2 2.52  16 2.54   4 2.55  44 2.55
   6  0.333  0.165  0.286-  38 2.44   9 2.44  36 2.45   2 2.47  17 2.50   5 2.50  15 2.50  45 2.51
                            35 2.55  60 2.55  59 2.56  39 2.57
   7  0.749  0.253  0.193-  18 2.44  39 2.46  14 2.49  48 2.49  13 2.51  34 2.51   4 2.53   3 2.53
                            11 2.54  36 2.55  19 2.55  10 2.56
   8  0.418  0.084  0.094-  37 2.49  36 2.51  16 2.51   3 2.52  11 2.52  30 2.53  28 2.53  48 2.56
                             2 2.56
   9  0.413  0.087  0.381-  68 1.80  38 2.41   6 2.44  17 2.46  12 2.50  39 2.51  29 2.53  60 2.53
                            49 2.55  31 2.60
  10  0.832  0.164  0.290-  20 2.48  39 2.48  34 2.49  43 2.49  35 2.51  62 2.52  41 2.53  18 2.54
                             4 2.55  61 2.55   7 2.56  12 2.58
  11  0.668  0.085  0.096-  34 2.51  40 2.51  48 2.51   8 2.52   3 2.52  19 2.53  30 2.54  63 2.54
                             7 2.54
  12  0.662  0.091  0.390-  69 1.88  68 1.88  49 2.48  20 2.50   9 2.50  39 2.52  10 2.58  41 2.61
                            64 2.62  31 2.63  61 2.73
  13  0.999  0.499  0.193-  43 2.43  22 2.46  18 2.49  53 2.50   4 2.50  42 2.51   7 2.51  19 2.52
                            50 2.52  21 2.53  14 2.53  26 2.55
  14  0.748  0.499  0.192-  56 2.45  15 2.46  44 2.48   7 2.49  48 2.49  18 2.49  57 2.52  26 2.52
                            21 2.52  23 2.53  13 2.53  36 2.57
  15  0.582  0.412  0.286-  49 2.41  14 2.46  36 2.47  56 2.48  44 2.48  18 2.49  45 2.50   6 2.50
                            17 2.51  55 2.53  39 2.59  58 2.64
  16  0.420  0.333  0.094-  36 2.51   8 2.51  37 2.52  57 2.52  44 2.52  46 2.53  24 2.54  48 2.54
                             5 2.54
  17  0.415  0.332  0.381-  66 1.87  38 2.43  45 2.46   9 2.46   6 2.50  15 2.51  49 2.51  47 2.53
                            25 2.56  58 2.57
  18  0.829  0.413  0.287-  49 2.41   7 2.44  43 2.46  56 2.46  13 2.49  14 2.49  15 2.49  20 2.51
                            22 2.52  10 2.54  39 2.54  27 2.55
  19  0.919  0.335  0.096-  48 2.49   4 2.50  40 2.51  53 2.51  13 2.52  11 2.53  26 2.54  46 2.54
                             7 2.55
  20  0.914  0.334  0.384-  67 1.86  10 2.48  43 2.48  41 2.49  12 2.50  18 2.51  49 2.53  47 2.54
                            27 2.56  54 2.56
  21  0.998  0.749  0.193-  59 2.41  50 2.48  23 2.48  22 2.50  56 2.50  32 2.50  26 2.52  14 2.52
                             2 2.53  13 2.53   1 2.54  28 2.55
  22  0.079  0.662  0.287-  29 2.44  13 2.46  43 2.46  50 2.47  21 2.50  56 2.50  18 2.52  59 2.52
                            60 2.52  54 2.53  27 2.56  52 2.59
  23  0.753  0.752  0.192-  21 2.48  63 2.49  55 2.49   1 2.50  62 2.50  32 2.51  57 2.52  56 2.52
                            14 2.53  44 2.54  51 2.57  34 2.58
  24  0.417  0.584  0.096-  46 2.49  44 2.50  51 2.51  57 2.52  30 2.52  63 2.53  16 2.54  42 2.56
                            53 2.57
  25  0.414  0.585  0.386-  66 1.89  52 2.45  64 2.47  31 2.48  47 2.50  54 2.51  58 2.54  17 2.56
                            45 2.57  55 2.59
  26  0.916  0.585  0.095-  48 2.48  32 2.48  57 2.50  53 2.51  21 2.52  14 2.52  28 2.53  19 2.54
                            13 2.55
  27  0.907  0.583  0.384-  67 1.88  33 2.42  56 2.45  49 2.45  58 2.46  18 2.55  20 2.56  22 2.56
                            29 2.58  54 2.60
  28  0.167  0.835  0.095-  32 2.48  37 2.49  53 2.50   2 2.52  50 2.53   8 2.53  26 2.53  30 2.54
                            21 2.55
  29  0.164  0.836  0.377-  60 2.41  59 2.42  22 2.44  33 2.47  31 2.50  54 2.52  38 2.52   9 2.53
                            27 2.58
  30  0.417  0.833  0.097-  51 2.49   3 2.50  53 2.52  24 2.52   8 2.53  11 2.54  28 2.54  63 2.54
                            50 2.55
  31  0.406  0.827  0.385-  68 1.85  54 2.41  25 2.48  52 2.49  29 2.50  60 2.51  64 2.52  61 2.60
                             9 2.60  12 2.63
  32  0.920  0.833  0.095-  28 2.48  26 2.48   1 2.50  21 2.50  23 2.51  57 2.53  37 2.54  63 2.54
                            40 2.57
  33  0.914  0.826  0.383-  65 1.89  27 2.42  58 2.45  29 2.47  62 2.51  56 2.51  59 2.54  64 2.62
                            41 2.64  38 2.66
  34  0.749  0.005  0.193-  61 2.46  10 2.49   4 2.50  11 2.51   7 2.51   3 2.51  62 2.52  63 2.54
                             1 2.54  51 2.55  40 2.57  23 2.58
  35  0.081  0.164  0.285-   1 2.47   4 2.47   5 2.48  47 2.49  38 2.51  10 2.51  62 2.52  59 2.54
                             6 2.55  45 2.55  43 2.57  41 2.62
  36  0.493  0.245  0.192-   6 2.45  15 2.47   5 2.48   2 2.48   3 2.49  16 2.51   8 2.51  44 2.52
                             7 2.55  39 2.56  14 2.57  48 2.57
  37  0.171  0.083  0.095-  28 2.49   8 2.49   2 2.50   5 2.50  16 2.52   1 2.52  32 2.54  46 2.57
                            40 2.58
  38  0.176  0.091  0.381-  65 1.81   9 2.41  17 2.43   6 2.44  35 2.51  29 2.52  47 2.53  59 2.58
                            41 2.59  33 2.66
  39  0.583  0.156  0.287-   3 2.43  61 2.44   7 2.46  10 2.48   9 2.51  49 2.51  60 2.52  12 2.52
                            18 2.54  36 2.56   6 2.57  15 2.59
  40  0.917  0.086  0.094-  19 2.51  11 2.51   1 2.52  63 2.53   4 2.53  46 2.55  34 2.57  32 2.57
                            37 2.58
  41  0.919  0.089  0.389-  69 1.83  65 1.87  20 2.49  47 2.51  10 2.53  38 2.59  12 2.61  35 2.62
                            64 2.63  62 2.63  33 2.64
  42  0.246  0.497  0.194-  45 2.48  52 2.49  43 2.49   4 2.49  13 2.51  46 2.51   5 2.52  53 2.54
                            51 2.55  24 2.56  44 2.58  50 2.59
  43  0.074  0.415  0.287-  13 2.43  47 2.45  18 2.46  22 2.46  20 2.48   4 2.48  42 2.49  10 2.49
                            52 2.56  35 2.57  54 2.60  45 2.65
  44  0.503  0.500  0.191-  14 2.48  15 2.48  57 2.49  55 2.50  24 2.50  45 2.51  36 2.52  16 2.52
                            23 2.54   5 2.55  51 2.55  42 2.58
  45  0.336  0.415  0.287-  47 2.44  17 2.46  42 2.48  52 2.49   5 2.50  15 2.50  44 2.51   6 2.51
                            55 2.53  35 2.55  25 2.57  43 2.65
  46  0.171  0.337  0.096-  24 2.49   5 2.50  42 2.51  16 2.53  19 2.54   4 2.55  53 2.55  40 2.55
                            37 2.57
  47  0.167  0.337  0.378-  45 2.44  43 2.45  35 2.49  25 2.50  41 2.51  17 2.53  38 2.53  20 2.54
                            54 2.55
  48  0.673  0.336  0.096-  26 2.48  19 2.49  14 2.49   7 2.49  11 2.51  57 2.53  16 2.54   8 2.56
                            36 2.57
  49  0.666  0.338  0.378-  15 2.41  18 2.41  27 2.45  12 2.48  17 2.51  39 2.51  20 2.53  58 2.54
                             9 2.55
  50  0.245  0.753  0.193-  60 2.42  22 2.47   2 2.47  21 2.48  53 2.51  13 2.52  28 2.53   3 2.54
                            30 2.55  51 2.57  52 2.59  42 2.59
  51  0.498  0.750  0.193-  61 2.42  30 2.49  52 2.51  24 2.51  55 2.52  63 2.52   3 2.54  44 2.55
                            34 2.55  42 2.55  23 2.57  50 2.57
  52  0.335  0.660  0.289-  25 2.45  45 2.49  42 2.49  31 2.49  61 2.50  51 2.51  55 2.53  54 2.53
                            60 2.55  43 2.56  50 2.59  22 2.59
  53  0.165  0.586  0.097-  13 2.50  28 2.50  50 2.51  26 2.51  19 2.51  30 2.52  42 2.54  46 2.55
                            24 2.57
  54  0.167  0.589  0.386-  67 1.83  31 2.41  25 2.51  29 2.52  22 2.53  52 2.53  47 2.55  20 2.56
                            27 2.60  43 2.60
  55  0.587  0.664  0.287-  56 2.48  23 2.49  44 2.50  62 2.50  58 2.50  64 2.51  51 2.52  52 2.53
                            15 2.53  45 2.53  61 2.55  25 2.59
  56  0.829  0.657  0.287-  14 2.45  27 2.45  18 2.46  55 2.48  15 2.48  21 2.50  22 2.50  33 2.51
                            23 2.52  58 2.53  59 2.55  62 2.59
  57  0.668  0.584  0.095-  44 2.49  26 2.50  63 2.51  23 2.52  14 2.52  16 2.52  24 2.52  32 2.53
                            48 2.53
  58  0.667  0.589  0.386-  66 1.81  33 2.45  27 2.46  64 2.48  55 2.50  56 2.53  25 2.54  49 2.54
                            17 2.57  15 2.64
  59  0.079  0.911  0.284-  21 2.41  29 2.42   2 2.46   1 2.49  62 2.52  22 2.52  60 2.54  33 2.54
                            35 2.54  56 2.55   6 2.56  38 2.58
  60  0.330  0.910  0.287-  29 2.41  50 2.42  61 2.50   3 2.50   2 2.50  31 2.51  39 2.52  22 2.52
                             9 2.53  59 2.54  52 2.55   6 2.55
  61  0.578  0.912  0.285-  51 2.42  39 2.44  34 2.46   3 2.47  60 2.50  52 2.50  64 2.52  55 2.55
                            62 2.55  10 2.55  31 2.60  12 2.73
  62  0.832  0.914  0.288-  55 2.50  23 2.50  33 2.51  10 2.52  59 2.52  35 2.52  34 2.52  64 2.53
                             1 2.54  61 2.55  56 2.59  41 2.63
  63  0.668  0.834  0.097-  23 2.49  57 2.51  51 2.52  40 2.53  24 2.53  30 2.54  34 2.54  11 2.54
                            32 2.54
  64  0.658  0.830  0.383-  69 1.84  25 2.47  58 2.48  55 2.51  31 2.52  61 2.52  62 2.53  33 2.62
                            12 2.62  41 2.63
  65  0.016  0.002  0.434-  38 1.81  41 1.87  33 1.89
  66  0.502  0.497  0.437-  58 1.81  17 1.87  25 1.89
  67  0.999  0.502  0.437-  54 1.83  20 1.86  27 1.88
  68  0.478  0.996  0.436-   9 1.80  31 1.85  12 1.88
  69  0.746  0.994  0.437-  41 1.83  64 1.84  12 1.88
 

IMPORTANT INFORMATION: All symmetrisations will be switched off!
NOSYMM: (Re-)initialisation of all symmetry stuff for point group C_1.

 
 

Automatic generation of k-mesh.
 generate k-points for:    1    1    1
Space group operators:
 irot       det(A)        alpha          n_x          n_y          n_z        tau_x        tau_y        tau_z
    1     1.000000     0.000000     1.000000     0.000000     0.000000     0.000000     0.000000     0.000000
 
 Subroutine IBZKPT returns following result:
 ===========================================
 
 Found      1 irreducible k-points:
 
 Following reciprocal coordinates:
            Coordinates               Weight
  0.000000  0.000000  0.000000      1.000000
 
 Following cartesian coordinates:
            Coordinates               Weight
  0.000000  0.000000  0.000000      1.000000
 
 
 Subroutine IBZKPT_HF returns following result:
 ==============================================
 
 Found      1 k-points in 1st BZ
 the following      1 k-points will be used (e.g. in the exchange kernel)
 Following reciprocal coordinates:   # in IRBZ
  0.000000  0.000000  0.000000    1.00000000   1 t-inv F


--------------------------------------------------------------------------------------------------------




 Dimension of arrays:
   k-points           NKPTS =      1   k-points in BZ     NKDIM =      1   number of bands    NBANDS=    366
   number of dos      NEDOS =    301   number of ions     NIONS =     69
   non local maximal  LDIM  =      6   non local SUM 2l+1 LMDIM =     18
   total plane-waves  NPLWV = ******
   max r-space proj   IRMAX =   8292   max aug-charges    IRDMAX=  19623
   dimension x,y,z NGX =    80 NGY =   80 NGZ =  160
   dimension x,y,z NGXF=   160 NGYF=  160 NGZF=  320
   support grid    NGXF=   160 NGYF=  160 NGZF=  320
   ions per type =              33  31   5
   NGX,Y,Z   is equivalent  to a cutoff of  13.17, 13.17, 12.52 a.u.
   NGXF,Y,Z  is equivalent  to a cutoff of  26.34, 26.34, 25.03 a.u.

 SYSTEM =  SQS-NiFe                                
 POSCAR =  POSCAR                                  

 Startparameter for this run:
   NWRITE =      2    write-flag & timer
   PREC   = accura    normal or accurate (medium, high low for compatibility)
   ISTART =      0    job   : 0-new  1-cont  2-samecut
   ICHARG =      1    charge: 1-file 2-atom 10-const
   ISPIN  =      1    spin polarized calculation?
   LNONCOLLINEAR =      F non collinear calculations
   LSORBIT =      F    spin-orbit coupling
   INIWAV =      1    electr: 0-lowe 1-rand  2-diag
   LASPH  =      F    aspherical Exc in radial PAW
   METAGGA=      F    non-selfconsistent MetaGGA calc.

 Electronic Relaxation 1
   ENCUT  =  520.0 eV  38.22 Ry    6.18 a.u.  18.78 18.78 39.52*2*pi/ulx,y,z
   ENINI  =  520.0     initial cutoff
   ENAUG  =  605.4 eV  augmentation charge cutoff
   NELM   =    200;   NELMIN=  2; NELMDL= -5     # of ELM steps 
   EDIFF  = 0.1E-05   stopping-criterion for ELM
   LREAL  =      T    real-space projection
   NLSPLINE    = F    spline interpolate recip. space projectors
   LCOMPAT=      F    compatible to vasp.4.4
   GGA_COMPAT  = T    GGA compatible to vasp.4.4-vasp.4.6
   LMAXPAW     = -100 max onsite density
   LMAXMIX     =    2 max onsite mixed and CHGCAR
   VOSKOWN=      0    Vosko Wilk Nusair interpolation
   ROPT   =   -0.00025  -0.00025  -0.00025
 Ionic relaxation
   EDIFFG = -.2E-01   stopping-criterion for IOM
   NSW    =    865    number of steps for IOM
   NBLOCK =      1;   KBLOCK =    865    inner block; outer block 
   IBRION =      5    ionic relax: 0-MD 1-quasi-New 2-CG
   NFREE  =      2    steps in history (QN), initial steepest desc. (CG)
   ISIF   =      2    stress and relaxation
   IWAVPR =     11    prediction:  0-non 1-charg 2-wave 3-comb
   ISYM   =      0    0-nonsym 1-usesym 2-fastsym
   LCORR  =      T    Harris-Foulkes like correction to forces

   POTIM  = 0.0150    time-step for ionic-motion
   TEIN   =    0.0    initial temperature
   TEBEG  =    0.0;   TEEND  =   0.0 temperature during run
   SMASS  =  -3.00    Nose mass-parameter (am)
   estimated Nose-frequenzy (Omega)   =  0.10E-29 period in steps =****** mass=  -0.233E-26a.u.
   SCALEE = 1.0000    scale energy and forces
   NPACO  =    256;   APACO  = 16.0  distance and # of slots for P.C.
   PSTRESS=    0.0 pullay stress

  Mass of Ions in am
   POMASS =  58.69 55.85 16.00
  Ionic Valenz
   ZVAL   =  10.00  8.00  6.00
  Atomic Wigner-Seitz radii
   RWIGS  =  -1.00 -1.00 -1.00
  virtual crystal weights 
   VCA    =   1.00  1.00  1.00
   NELECT =     608.0000    total number of electrons
   NUPDOWN=      -1.0000    fix difference up-down

 DOS related values:
   EMIN   =  10.00;   EMAX   =-10.00  energy-range for DOS
   EFERMI =   0.00
   ISMEAR =     0;   SIGMA  =   0.20  broadening in eV -4-tet -1-fermi 0-gaus

 Electronic relaxation 2 (details)
   IALGO  =     68    algorithm
   LDIAG  =      T    sub-space diagonalisation (order eigenvalues)
   LSUBROT=      F    optimize rotation matrix (better conditioning)
   TURBO    =      0    0=normal 1=particle mesh
   IRESTART =      0    0=no restart 2=restart with 2 vectors
   NREBOOT  =      0    no. of reboots
   NMIN     =      0    reboot dimension
   EREF     =   0.00    reference energy to select bands
   IMIX   =      4    mixing-type and parameters
     AMIX     =   0.40;   BMIX     =  1.00
     AMIX_MAG =   1.60;   BMIX_MAG =  1.00
     AMIN     =   0.10
     WC   =   100.;   INIMIX=   1;  MIXPRE=   1;  MAXMIX= -45

 Intra band minimization:
   WEIMIN = 0.0010     energy-eigenvalue tresh-hold
   EBREAK =  0.68E-09  absolut break condition
   DEPER  =   0.30     relativ break condition  

   TIME   =   0.40     timestep for ELM

  volume/ion in A,a.u.               =      27.21       183.65
  Fermi-wavevector in a.u.,A,eV,Ry     =   1.124166  2.124366 17.194354  1.263749
  Thomas-Fermi vector in A             =   2.260836
 
 Write flags
   LWAVE        =      F    write WAVECAR
   LDOWNSAMPLE  =      F    k-point downsampling of WAVECAR
   LCHARG       =      F    write CHGCAR
   LVTOT        =      F    write LOCPOT, total local potential
   LVHAR        =      F    write LOCPOT, Hartree potential only
   LELF         =      F    write electronic localiz. function (ELF)
   LORBIT       =     10    0 simple, 1 ext, 2 COOP (PROOUT), +10 PAW based schemes


 Dipole corrections
   LMONO  =      F    monopole corrections only (constant potential shift)
   LDIPOL =      F    correct potential (dipole corrections)
   IDIPOL =      0    1-x, 2-y, 3-z, 4-all directions 
   EPSILON=  1.0000000 bulk dielectric constant

 Exchange correlation treatment:
   GGA     =    --    GGA type
   LEXCH   =     8    internal setting for exchange type
   VOSKOWN=      0    Vosko Wilk Nusair interpolation
   LHFCALC =     F    Hartree Fock is set to
   LHFONE  =     F    Hartree Fock one center treatment
   AEXX    =    0.0000 exact exchange contribution

 Linear response parameters
   LEPSILON=     F    determine dielectric tensor
   LRPA    =     F    only Hartree local field effects (RPA)
   LNABLA  =     F    use nabla operator in PAW spheres
   LVEL    =     F    velocity operator in full k-point grid
   LINTERFAST=   F  fast interpolation
   KINTER  =     0    interpolate to denser k-point grid
   CSHIFT  =0.1000    complex shift for real part using Kramers Kronig
   OMEGAMAX=  -1.0    maximum frequency
   DEG_THRESHOLD= 0.2000000E-02 threshold for treating states as degnerate
   RTIME   =   -0.100 relaxation time in fs
  (WPLASMAI=    0.000 imaginary part of plasma frequency in eV, 0.658/RTIME)
   DFIELD  = 0.0000000 0.0000000 0.0000000 field for delta impulse in time
 
 Orbital magnetization related:
   ORBITALMAG=     F  switch on orbital magnetization
   LCHIMAG   =     F  perturbation theory with respect to B field
   DQ        =  0.001000  dq finite difference perturbation B field
   LLRAUG    =     F  two centre corrections for induced B field



--------------------------------------------------------------------------------------------------------


 finite differences
   using selective dynamics as specified on POSCAR
 charge density and potential will be updated during run
 non-spin polarized calculation
 RMM-DIIS sequential band-by-band and
  variant of blocked Davidson during initial phase
 perform sub-space diagonalisation
    before iterative eigenvector-optimisation
 modified Broyden-mixing scheme, WC =      100.0
 initial mixing is a Kerker type mixing with AMIX =  0.4000 and BMIX =      1.0000
 Hartree-type preconditioning will be used
 using additional bands           62
 real space projection scheme for non local part
 use partial core corrections
 calculate Harris-corrections to forces 
   (improved forces if not selfconsistent)
 use gradient corrections 
 use of overlap-Matrix (Vanderbilt PP)
 Gauss-broadening in eV      SIGMA  =   0.20


--------------------------------------------------------------------------------------------------------


  energy-cutoff  :      520.00
  volume of cell :     1877.75
      direct lattice vectors                 reciprocal lattice vectors
    10.100310000  0.000000000  0.000000000     0.099006862  0.057161638  0.000000000
    -5.050155000  8.747125050  0.000000000     0.000000000  0.114323277  0.000000000
     0.000000000  0.000000000 21.253800000     0.000000000  0.000000000  0.047050410

  length of vectors
    10.100310000 10.100310003 21.253800000     0.114323277  0.114323277  0.047050410


 
 k-points in units of 2pi/SCALE and weight: read from INCAR                         
   0.00000000  0.00000000  0.00000000       1.000
 
 k-points in reciprocal lattice and weights: read from INCAR                         
   0.00000000  0.00000000  0.00000000       1.000
 
 position of ions in fractional coordinates (direct lattice) 
   0.99904300  0.00064200  0.19052300
   0.24849100  0.99862800  0.19205500
   0.49902500  0.00192700  0.19180600
   0.99813900  0.25067400  0.19194200
   0.24921500  0.24886200  0.19118600
   0.33339200  0.16497132  0.28621340
   0.74893500  0.25278100  0.19317500
   0.41837500  0.08394000  0.09411800
   0.41273377  0.08734141  0.38115314
   0.83221805  0.16355577  0.29045286
   0.66797000  0.08472300  0.09569300
   0.66201455  0.09139931  0.38967348
   0.99908600  0.49910800  0.19304000
   0.74816900  0.49871100  0.19204600
   0.58198756  0.41188314  0.28556718
   0.41961000  0.33337100  0.09414000
   0.41505551  0.33240129  0.38137238
   0.82921900  0.41302340  0.28697849
   0.91855900  0.33501600  0.09568700
   0.91445310  0.33359486  0.38357327
   0.99765800  0.74896900  0.19256000
   0.07928285  0.66180865  0.28723878
   0.75346500  0.75172800  0.19162900
   0.41737300  0.58352400  0.09623400
   0.41363175  0.58484943  0.38550252
   0.91550800  0.58461900  0.09542900
   0.90680552  0.58286333  0.38444653
   0.16682900  0.83490800  0.09456700
   0.16384829  0.83570226  0.37697410
   0.41715300  0.83338800  0.09679300
   0.40636567  0.82650986  0.38465153
   0.91985100  0.83263700  0.09539800
   0.91447983  0.82583221  0.38305625
   0.74918200  0.00453800  0.19311300
   0.08094170  0.16411102  0.28510452
   0.49319000  0.24544000  0.19167800
   0.17139600  0.08339300  0.09535900
   0.17585819  0.09090941  0.38076299
   0.58348162  0.15637716  0.28673110
   0.91693100  0.08581500  0.09410100
   0.91921988  0.08943679  0.38901809
   0.24596400  0.49669300  0.19369900
   0.07374863  0.41519968  0.28703350
   0.50297300  0.49962100  0.19096300
   0.33572904  0.41461321  0.28676430
   0.17081400  0.33724200  0.09550500
   0.16731747  0.33726463  0.37823068
   0.67264700  0.33598100  0.09600300
   0.66619358  0.33813997  0.37826160
   0.24490500  0.75270000  0.19343600
   0.49840300  0.74988300  0.19260700
   0.33497058  0.66034122  0.28941683
   0.16470600  0.58627100  0.09733100
   0.16691607  0.58871118  0.38625287
   0.58694031  0.66442902  0.28683792
   0.82884899  0.65673542  0.28737527
   0.66762500  0.58426200  0.09519900
   0.66702766  0.58946285  0.38574615
   0.07928468  0.91136601  0.28444689
   0.33020782  0.91048410  0.28675088
   0.57818938  0.91228030  0.28469774
   0.83154579  0.91419019  0.28826403
   0.66841400  0.83351100  0.09659800
   0.65767011  0.83026859  0.38313634
   0.01550199  0.00238435  0.43411796
   0.50212762  0.49733893  0.43734169
   0.99884589  0.50201122  0.43726849
   0.47799610  0.99641158  0.43580415
   0.74628839  0.99389909  0.43718860
 
 position of ions in cartesian coordinates  (Angst):
  10.08740180  0.00561565  4.04933774
  -2.53339006  8.73512399  4.08189856
   5.03057555  0.01685571  4.07660636
   8.81557077  2.19267682  4.07949688
   1.26035708  2.17682703  4.06342901
   2.53423182  1.44302476  6.08312243
   6.28789244  2.21110702  4.10570281
   3.80180719  0.73423368  2.00036515
   3.72765141  0.76398619  8.10095258
   7.57967831  1.43064279  6.17322700
   6.31883979  0.74108268  2.03383988
   6.22497147  0.79948122  8.28204229
   7.57050555  4.36576009  4.10283355
   5.03817098  4.36228748  4.08170727
   3.79818110  3.60279336  6.06938774
   2.55461586  2.91603783  2.00083273
   2.51351133  2.90755565  8.10561221
   6.28953671  3.61276736  6.09938340
   7.58584793  2.93042685  2.03371236
   7.55155408  2.91799594  8.15238948
   6.29424553  6.55132550  4.09263173
  -2.54145493  5.78892301  6.10491567
   3.81388716  6.57545882  4.07284444
   1.26871004  5.10415740  2.04533819
   1.22422861  5.11575110  8.19339343
   6.29449804  5.11373550  2.02822888
   6.21546668  5.09837843  8.17094958
  -2.53139019  7.30304468  2.00990810
  -2.56550741  7.30999218  8.01213208
   0.00463604  7.28974905  2.05721906
  -0.06958366  7.22958508  8.17530679
   5.08583435  7.28317996  2.02757001
   5.06594916  7.22365759  8.14140083
   7.54405284  0.03969445  4.10438508
  -0.01124987  1.43549960  6.05955454
   3.74186185  2.14689437  4.07388588
   1.31000516  0.72944900  2.02674111
   1.31711564  0.79519596  8.09266041
   5.10361636  1.36785059  6.09412554
   8.82790830  0.75063454  2.00000383
   8.83273609  0.78231474  8.26811270
  -0.02406399  4.34463578  4.11683981
  -1.35193870  3.63180351  6.10055256
   2.55701973  4.37024736  4.05868941
   1.29710638  3.62667362  6.09483107
   0.02214998  2.94989795  2.02984417
  -0.01328031  2.95009593  8.03883925
   5.09718709  2.93886782  2.04042856
   5.02110247  2.95775257  8.03949635
  -1.32763525  6.58396103  4.11125006
   1.24699942  6.55932037  4.09363066
   0.04848125  5.77608719  6.15120733
  -1.29717776  5.12818575  2.06865361
  -1.28717868  5.14953030  8.20934133
   2.57280959  5.81184374  6.09639586
   5.05501614  5.74454682  6.10781643
   3.79260580  5.11061278  2.02334051
   3.76030743  5.15610522  8.19857151
  -3.80173981  7.97183245  6.04557737
  -1.26288447  7.96411826  6.09454576
   1.23273501  7.97982989  6.05090877
   3.78206809  7.99653593  6.12670597
   2.54182886  7.29082495  2.05307457
   2.44968694  7.26246314  8.14310324
   0.14453355  0.02085625  9.22665636
   2.56000592  4.35028578  9.29517272
   7.55341868  4.39115493  9.29361693
  -0.20412414  8.71573667  9.26249427
   2.51839962  8.69375962  9.29191904
 


--------------------------------------------------------------------------------------------------------


 use parallel FFT for orbitals z direction half grid
 k-point  1 :   0.0000 0.0000 0.0000  plane waves:   25321

 maximum and minimum number of plane-waves per node :      1058     1052

 maximum number of plane-waves:     25321
 maximum index in each direction: 
   IXMAX=   18   IYMAX=   18   IZMAX=   39
   IXMIN=  -18   IYMIN=  -18   IZMIN=    0


 real space projection operators:
  total allocation   :      66976.55 KBytes
  max/ min on nodes  :       3377.22       2432.48


 parallel 3D FFT for wavefunctions:
    minimum data exchange during FFTs selected (reduces bandwidth)
 parallel 3D FFT for charge:
    minimum data exchange during FFTs selected (reduces bandwidth)


 total amount of memory used by VASP MPI-rank0    54074. kBytes
=======================================================================

   base      :      30000. kBytes
   nonlr-proj:       4038. kBytes
   fftplans  :       5965. kBytes
   grid      :      11929. kBytes
   one-center:         23. kBytes
   wavefun   :       2119. kBytes
 
     INWAV:  cpu time    0.0001: real time    0.0006
 Broyden mixing: mesh for mixing (old mesh)
   NGX = 37   NGY = 37   NGZ = 79
  (NGX  =160   NGY  =160   NGZ  =320)
  gives a total of 108151 points

 initial charge density was supplied:
 number of electron     608.0000027 magnetization 
 keeping initial charge density in first step


--------------------------------------------------------------------------------------------------------


 Maximum index for non-local projection operator          766
 Maximum index for augmentation-charges         1137 (set IRDMAX)


--------------------------------------------------------------------------------------------------------


 First call to EWALD:  gamma=   0.144
 Maximum number of real-space cells 4x 4x 2
 Maximum number of reciprocal cells 2x 2x 4

    FEWALD:  cpu time    0.0042: real time    0.0042


--------------------------------------- Iteration      1(   1)  ---------------------------------------


    POTLOK:  cpu time    0.1950: real time    0.2099
    SETDIJ:  cpu time    0.0118: real time    0.0293
     EDDAV:  cpu time    2.2063: real time    2.3398
       DOS:  cpu time    0.0017: real time    0.0085
    --------------------------------------------
      LOOP:  cpu time    2.4150: real time    2.5885

 eigenvalue-minimisations  :   732
 total energy-change (2. order) : 0.5633987E+04  (-0.3059135E+05)
 number of electron     608.0000027 magnetization 
 augmentation part      608.0000027 magnetization 

 Free energy of the ion-electron system (eV)
  ---------------------------------------------------
  alpha Z        PSCENC =      1449.59834672
  Ewald energy   TEWEN  =    197569.37391233
  -Hartree energ DENC   =   -252664.07117929
  -exchange      EXHF   =         0.00000000
  -V(xc)+E(xc)   XCENC  =      1237.83290010
  PAW double counting   =     61673.63765849   -64224.67711241
  entropy T*S    EENTRO =        -0.37964247
  eigenvalues    EBANDS =      4444.04830173
  atomic energy  EATOM  =     56148.62337470
  Solvation  Ediel_sol  =         0.00000000
  ---------------------------------------------------
  free energy    TOTEN  =      5633.98655989 eV

  energy without entropy =     5634.36620236  energy(sigma->0) =     5634.17638113


--------------------------------------------------------------------------------------------------------




--------------------------------------- Iteration      1(   2)  ---------------------------------------


     EDDAV:  cpu time    2.1609: real time    2.1732
       DOS:  cpu time    0.0013: real time    0.0013
    --------------------------------------------
      LOOP:  cpu time    2.1621: real time    2.1734

 eigenvalue-minimisations  :   732
 total energy-change (2. order) :-0.5399837E+04  (-0.5263880E+04)
 number of electron     608.0000027 magnetization 
 augmentation part      608.0000027 magnetization 

 Free energy of the ion-electron system (eV)
  ---------------------------------------------------
  alpha Z        PSCENC =      1449.59834672
  Ewald energy   TEWEN  =    197569.37391233
  -Hartree energ DENC   =   -252664.07117929
  -exchange      EXHF   =         0.00000000
  -V(xc)+E(xc)   XCENC  =      1237.83290010
  PAW double counting   =     61673.63765849   -64224.67711241
  entropy T*S    EENTRO =        -1.47441323
  eigenvalues    EBANDS =      -954.69372523
  atomic energy  EATOM  =     56148.62337470
  Solvation  Ediel_sol  =         0.00000000
  ---------------------------------------------------
  free energy    TOTEN  =       234.14976218 eV

  energy without entropy =      235.62417541  energy(sigma->0) =      234.88696879


--------------------------------------------------------------------------------------------------------




--------------------------------------- Iteration      1(   3)  ---------------------------------------


     EDDAV:  cpu time    2.2162: real time    2.2294
       DOS:  cpu time    0.0014: real time    0.0014
    --------------------------------------------
      LOOP:  cpu time    2.2176: real time    2.2308

 eigenvalue-minimisations  :   759
 total energy-change (2. order) :-0.5802935E+03  (-0.5173757E+03)
 number of electron     608.0000027 magnetization 
 augmentation part      608.0000027 magnetization 

 Free energy of the ion-electron system (eV)
  ---------------------------------------------------
  alpha Z        PSCENC =      1449.59834672
  Ewald energy   TEWEN  =    197569.37391233
  -Hartree energ DENC   =   -252664.07117929
  -exchange      EXHF   =         0.00000000
  -V(xc)+E(xc)   XCENC  =      1237.83290010
  PAW double counting   =     61673.63765849   -64224.67711241
  entropy T*S    EENTRO =        -2.67830204
  eigenvalues    EBANDS =     -1533.78332174
  atomic energy  EATOM  =     56148.62337470
  Solvation  Ediel_sol  =         0.00000000
  ---------------------------------------------------
  free energy    TOTEN  =      -346.14372314 eV

  energy without entropy =     -343.46542110  energy(sigma->0) =     -344.80457212


--------------------------------------------------------------------------------------------------------




--------------------------------------- Iteration      1(   4)  ---------------------------------------


     EDDAV:  cpu time    3.6759: real time    3.6880
       DOS:  cpu time    0.0014: real time    0.0014
    --------------------------------------------
      LOOP:  cpu time    3.6773: real time    3.6894

 eigenvalue-minimisations  :  1428
 total energy-change (2. order) :-0.8958092E+02  (-0.8340396E+02)
 number of electron     608.0000027 magnetization 
 augmentation part      608.0000027 magnetization 

 Free energy of the ion-electron system (eV)
  ---------------------------------------------------
  alpha Z        PSCENC =      1449.59834672
  Ewald energy   TEWEN  =    197569.37391233
  -Hartree energ DENC   =   -252664.07117929
  -exchange      EXHF   =         0.00000000
  -V(xc)+E(xc)   XCENC  =      1237.83290010
  PAW double counting   =     61673.63765849   -64224.67711241
  entropy T*S    EENTRO =        -2.61997647
  eigenvalues    EBANDS =     -1623.42256253
  atomic energy  EATOM  =     56148.62337470
  Solvation  Ediel_sol  =         0.00000000
  ---------------------------------------------------
  free energy    TOTEN  =      -435.72463836 eV

  energy without entropy =     -433.10466189  energy(sigma->0) =     -434.41465013


--------------------------------------------------------------------------------------------------------




--------------------------------------- Iteration      1(   5)  ---------------------------------------


     EDDAV:  cpu time    2.9455: real time    2.9581
       DOS:  cpu time    0.0014: real time    0.0014
    CHARGE:  cpu time    0.1097: real time    0.1224
    MIXING:  cpu time    0.0046: real time    0.0111
    --------------------------------------------
      LOOP:  cpu time    3.0613: real time    3.0931

 eigenvalue-minimisations  :  1104
 total energy-change (2. order) :-0.9674343E+01  (-0.9219948E+01)
 number of electron     608.0000028 magnetization 
 augmentation part      333.9227786 magnetization 

 Broyden mixing:
  rms(total) = 0.37882E+01    rms(broyden)= 0.37880E+01
  rms(prec ) = 0.42563E+01
  weight for this iteration     100.00

 Free energy of the ion-electron system (eV)
  ---------------------------------------------------
  alpha Z        PSCENC =      1449.59834672
  Ewald energy   TEWEN  =    197569.37391233
  -Hartree energ DENC   =   -252664.07117929
  -exchange      EXHF   =         0.00000000
  -V(xc)+E(xc)   XCENC  =      1237.83290010
  PAW double counting   =     61673.63765849   -64224.67711241
  entropy T*S    EENTRO =        -2.68958059
  eigenvalues    EBANDS =     -1633.02730173
  atomic energy  EATOM  =     56148.62337470
  Solvation  Ediel_sol  =         0.00000000
  ---------------------------------------------------
  free energy    TOTEN  =      -445.39898168 eV

  energy without entropy =     -442.70940109  energy(sigma->0) =     -444.05419138


--------------------------------------------------------------------------------------------------------




--------------------------------------- Iteration      1(   6)  ---------------------------------------


    POTLOK:  cpu time    0.1838: real time    0.1932
    SETDIJ:  cpu time    0.0107: real time    0.0107
    EDDIAG:  cpu time    0.3108: real time    0.3202
  RMM-DIIS:  cpu time    1.9240: real time    1.9318
    ORTHCH:  cpu time    0.0671: real time    0.0671
       DOS:  cpu time    0.0017: real time    0.0017
    CHARGE:  cpu time    0.1036: real time    0.1037
    MIXING:  cpu time    0.0046: real time    0.0060
    --------------------------------------------
      LOOP:  cpu time    2.6063: real time    2.6343

 eigenvalue-minimisations  :   926
 total energy-change (2. order) :-0.3122722E+03  (-0.5411194E+02)
 number of electron     608.0000032 magnetization 
 augmentation part      344.6141319 magnetization 

 Broyden mixing:
  rms(total) = 0.16960E+02    rms(broyden)= 0.16960E+02
  rms(prec ) = 0.19340E+02
  weight for this iteration     100.00

 eigenvalues of (default mixing * dielectric matrix)
  average eigenvalue GAMMA=   0.1592
  0.1592

 Free energy of the ion-electron system (eV)
  ---------------------------------------------------
  alpha Z        PSCENC =      1449.59834672
  Ewald energy   TEWEN  =    197569.37391233
  -Hartree energ DENC   =   -252448.33317385
  -exchange      EXHF   =         0.00000000
  -V(xc)+E(xc)   XCENC  =      1230.45500230
  PAW double counting   =     61028.39063797   -63518.77478534
  entropy T*S    EENTRO =        -1.01667138
  eigenvalues    EBANDS =     -2215.98781816
  atomic energy  EATOM  =     56148.62337470
  Solvation  Ediel_sol  =         0.00000000
  ---------------------------------------------------
  free energy    TOTEN  =      -757.67117472 eV

  energy without entropy =     -756.65450334  energy(sigma->0) =     -757.16283903


--------------------------------------------------------------------------------------------------------




--------------------------------------- Iteration      1(   7)  ---------------------------------------


    POTLOK:  cpu time    0.1816: real time    0.1940
    SETDIJ:  cpu time    0.0106: real time    0.0106
    EDDIAG:  cpu time    0.3094: real time    0.3095
  RMM-DIIS:  cpu time    1.5333: real time    1.5339
    ORTHCH:  cpu time    0.0674: real time    0.0674
       DOS:  cpu time    0.0017: real time    0.0018
    CHARGE:  cpu time    0.1054: real time    0.1054
    MIXING:  cpu time    0.0038: real time    0.0038
    --------------------------------------------
      LOOP:  cpu time    2.2133: real time    2.2263

 eigenvalue-minimisations  :   733
 total energy-change (2. order) : 0.2066125E+03  (-0.2617115E+02)
 number of electron     608.0000022 magnetization 
 augmentation part      336.6749824 magnetization 

 Broyden mixing:
  rms(total) = 0.11666E+02    rms(broyden)= 0.11666E+02
  rms(prec ) = 0.13858E+02
  weight for this iteration     100.00

 eigenvalues of (default mixing * dielectric matrix)
  average eigenvalue GAMMA=   0.1232
  0.1452  0.1013

 Free energy of the ion-electron system (eV)
  ---------------------------------------------------
  alpha Z        PSCENC =      1449.59834672
  Ewald energy   TEWEN  =    197569.37391233
  -Hartree energ DENC   =   -252725.07810320
  -exchange      EXHF   =         0.00000000
  -V(xc)+E(xc)   XCENC  =      1234.75152409
  PAW double counting   =     61307.63595111   -63837.76733644
  entropy T*S    EENTRO =        -1.45148077
  eigenvalues    EBANDS =     -1696.74486677
  atomic energy  EATOM  =     56148.62337470
  Solvation  Ediel_sol  =         0.00000000
  ---------------------------------------------------
  free energy    TOTEN  =      -551.05867823 eV

  energy without entropy =     -549.60719746  energy(sigma->0) =     -550.33293784


--------------------------------------------------------------------------------------------------------




--------------------------------------- Iteration      1(   8)  ---------------------------------------


    POTLOK:  cpu time    0.1837: real time    0.1952
    SETDIJ:  cpu time    0.0106: real time    0.0106
    EDDIAG:  cpu time    0.3097: real time    0.3098
  RMM-DIIS:  cpu time    1.5320: real time    1.5334
    ORTHCH:  cpu time    0.0669: real time    0.0669
       DOS:  cpu time    0.0016: real time    0.0016
    CHARGE:  cpu time    0.1086: real time    0.1086
    MIXING:  cpu time    0.0039: real time    0.0039
    --------------------------------------------
      LOOP:  cpu time    2.2172: real time    2.2301

 eigenvalue-minimisations  :   737
 total energy-change (2. order) : 0.9105551E+02  (-0.5831083E+01)
 number of electron     608.0000026 magnetization 
 augmentation part      334.3447481 magnetization 

 Broyden mixing:
  rms(total) = 0.61474E+01    rms(broyden)= 0.61471E+01
  rms(prec ) = 0.68929E+01
  weight for this iteration     100.00

 eigenvalues of (default mixing * dielectric matrix)
  average eigenvalue GAMMA=   0.1229
  0.1434  0.1434  0.0817

 Free energy of the ion-electron system (eV)
  ---------------------------------------------------
  alpha Z        PSCENC =      1449.59834672
  Ewald energy   TEWEN  =    197569.37391233
  -Hartree energ DENC   =   -252663.55071539
  -exchange      EXHF   =         0.00000000
  -V(xc)+E(xc)   XCENC  =      1236.49218824
  PAW double counting   =     61362.72649340   -63905.01310454
  entropy T*S    EENTRO =        -2.19349321
  eigenvalues    EBANDS =     -1656.06017147
  atomic energy  EATOM  =     56148.62337470
  Solvation  Ediel_sol  =         0.00000000
  ---------------------------------------------------
  free energy    TOTEN  =      -460.00316922 eV

  energy without entropy =     -457.80967601  energy(sigma->0) =     -458.90642262


--------------------------------------------------------------------------------------------------------




--------------------------------------- Iteration      1(   9)  ---------------------------------------


    POTLOK:  cpu time    0.1847: real time    0.1968
    SETDIJ:  cpu time    0.0107: real time    0.0107
    EDDIAG:  cpu time    0.3116: real time    0.3116
  RMM-DIIS:  cpu time    1.5424: real time    1.5429
    ORTHCH:  cpu time    0.0678: real time    0.0679
       DOS:  cpu time    0.0016: real time    0.0017
    CHARGE:  cpu time    0.1078: real time    0.1078
    MIXING:  cpu time    0.0040: real time    0.0040
    --------------------------------------------
      LOOP:  cpu time    2.2305: real time    2.2432

 eigenvalue-minimisations  :   738
 total energy-change (2. order) : 0.9543542E+01  (-0.2153164E+01)
 number of electron     608.0000028 magnetization 
 augmentation part      334.6951874 magnetization 

 Broyden mixing:
  rms(total) = 0.50145E+01    rms(broyden)= 0.50144E+01
  rms(prec ) = 0.62662E+01
  weight for this iteration     100.00

 eigenvalues of (default mixing * dielectric matrix)
  average eigenvalue GAMMA=   0.1286
  0.1825  0.1825  0.0884  0.0611

 Free energy of the ion-electron system (eV)
  ---------------------------------------------------
  alpha Z        PSCENC =      1449.59834672
  Ewald energy   TEWEN  =    197569.37391233
  -Hartree energ DENC   =   -252663.12106791
  -exchange      EXHF   =         0.00000000
  -V(xc)+E(xc)   XCENC  =      1236.35392290
  PAW double counting   =     61316.99002398   -63857.97118150
  entropy T*S    EENTRO =        -2.57012233
  eigenvalues    EBANDS =     -1647.73683633
  atomic energy  EATOM  =     56148.62337470
  Solvation  Ediel_sol  =         0.00000000
  ---------------------------------------------------
  free energy    TOTEN  =      -450.45962745 eV

  energy without entropy =     -447.88950512  energy(sigma->0) =     -449.17456629


--------------------------------------------------------------------------------------------------------




--------------------------------------- Iteration      1(  10)  ---------------------------------------


    POTLOK:  cpu time    0.1852: real time    0.1973
    SETDIJ:  cpu time    0.0108: real time    0.0108
    EDDIAG:  cpu time    0.3111: real time    0.3115
  RMM-DIIS:  cpu time    1.8629: real time    1.8635
    ORTHCH:  cpu time    0.0676: real time    0.0676
       DOS:  cpu time    0.0016: real time    0.0016
    CHARGE:  cpu time    0.1089: real time    0.1090
    MIXING:  cpu time    0.0044: real time    0.0044
    --------------------------------------------
      LOOP:  cpu time    2.5526: real time    2.5657

 eigenvalue-minimisations  :   902
 total energy-change (2. order) : 0.5353655E+01  (-0.8560091E+00)
 number of electron     608.0000027 magnetization 
 augmentation part      335.3995390 magnetization 

 Broyden mixing:
  rms(total) = 0.38696E+01    rms(broyden)= 0.38694E+01
  rms(prec ) = 0.44705E+01
  weight for this iteration     100.00

 eigenvalues of (default mixing * dielectric matrix)
  average eigenvalue GAMMA=   0.1375
  0.2120  0.2120  0.1207  0.0925  0.0505

 Free energy of the ion-electron system (eV)
  ---------------------------------------------------
  alpha Z        PSCENC =      1449.59834672
  Ewald energy   TEWEN  =    197569.37391233
  -Hartree energ DENC   =   -252651.24274236
  -exchange      EXHF   =         0.00000000
  -V(xc)+E(xc)   XCENC  =      1236.04849288
  PAW double counting   =     61253.71581888   -63791.42498335
  entropy T*S    EENTRO =        -2.70380259
  eigenvalues    EBANDS =     -1657.09438970
  atomic energy  EATOM  =     56148.62337470
  Solvation  Ediel_sol  =         0.00000000
  ---------------------------------------------------
  free energy    TOTEN  =      -445.10597249 eV

  energy without entropy =     -442.40216990  energy(sigma->0) =     -443.75407120


--------------------------------------------------------------------------------------------------------




--------------------------------------- Iteration      1(  11)  ---------------------------------------


    POTLOK:  cpu time    0.1860: real time    0.1978
    SETDIJ:  cpu time    0.0109: real time    0.0109
    EDDIAG:  cpu time    0.3092: real time    0.3093
  RMM-DIIS:  cpu time    1.5352: real time    1.5358
    ORTHCH:  cpu time    0.0669: real time    0.0669
       DOS:  cpu time    0.0017: real time    0.0017
    CHARGE:  cpu time    0.1095: real time    0.1095
    MIXING:  cpu time    0.0042: real time    0.0042
    --------------------------------------------
      LOOP:  cpu time    2.2237: real time    2.2360

 eigenvalue-minimisations  :   736
 total energy-change (2. order) : 0.5266758E+00  (-0.7300020E+00)
 number of electron     608.0000026 magnetization 
 augmentation part      335.5214053 magnetization 

 Broyden mixing:
  rms(total) = 0.38059E+01    rms(broyden)= 0.38057E+01
  rms(prec ) = 0.48225E+01
  weight for this iteration     100.00

 eigenvalues of (default mixing * dielectric matrix)
  average eigenvalue GAMMA=   0.1681
  0.2812  0.2812  0.2465  0.0904  0.0696  0.0398

 Free energy of the ion-electron system (eV)
  ---------------------------------------------------
  alpha Z        PSCENC =      1449.59834672
  Ewald energy   TEWEN  =    197569.37391233
  -Hartree energ DENC   =   -252653.04103089
  -exchange      EXHF   =         0.00000000
  -V(xc)+E(xc)   XCENC  =      1236.05708429
  PAW double counting   =     61191.80117321   -63727.69605908
  entropy T*S    EENTRO =        -2.69144811
  eigenvalues    EBANDS =     -1656.60464989
  atomic energy  EATOM  =     56148.62337470
  Solvation  Ediel_sol  =         0.00000000
  ---------------------------------------------------
  free energy    TOTEN  =      -444.57929674 eV

  energy without entropy =     -441.88784863  energy(sigma->0) =     -443.23357268


--------------------------------------------------------------------------------------------------------




--------------------------------------- Iteration      1(  12)  ---------------------------------------


    POTLOK:  cpu time    0.1856: real time    0.1977
    SETDIJ:  cpu time    0.0107: real time    0.0107
    EDDIAG:  cpu time    0.3101: real time    0.3102
  RMM-DIIS:  cpu time    1.5345: real time    1.5358
    ORTHCH:  cpu time    0.0673: real time    0.0674
       DOS:  cpu time    0.0018: real time    0.0018
    CHARGE:  cpu time    0.1087: real time    0.1087
    MIXING:  cpu time    0.0043: real time    0.0043
    --------------------------------------------
      LOOP:  cpu time    2.2231: real time    2.2366

 eigenvalue-minimisations  :   734
 total energy-change (2. order) :-0.3367413E+00  (-0.8639397E+00)
 number of electron     608.0000027 magnetization 
 augmentation part      334.9103160 magnetization 

 Broyden mixing:
  rms(total) = 0.36460E+01    rms(broyden)= 0.36458E+01
  rms(prec ) = 0.41729E+01
  weight for this iteration     100.00

 eigenvalues of (default mixing * dielectric matrix)
  average eigenvalue GAMMA=   0.2580
  0.9092  0.3001  0.3001  0.1070  0.0845  0.0642  0.0408

 Free energy of the ion-electron system (eV)
  ---------------------------------------------------
  alpha Z        PSCENC =      1449.59834672
  Ewald energy   TEWEN  =    197569.37391233
  -Hartree energ DENC   =   -252663.41186996
  -exchange      EXHF   =         0.00000000
  -V(xc)+E(xc)   XCENC  =      1236.73770262
  PAW double counting   =     61128.32184622   -63665.56120541
  entropy T*S    EENTRO =        -2.71358640
  eigenvalues    EBANDS =     -1645.88455885
  atomic energy  EATOM  =     56148.62337470
  Solvation  Ediel_sol  =         0.00000000
  ---------------------------------------------------
  free energy    TOTEN  =      -444.91603804 eV

  energy without entropy =     -442.20245164  energy(sigma->0) =     -443.55924484


--------------------------------------------------------------------------------------------------------




--------------------------------------- Iteration      1(  13)  ---------------------------------------


    POTLOK:  cpu time    0.1858: real time    0.1974
    SETDIJ:  cpu time    0.0107: real time    0.0107
    EDDIAG:  cpu time    0.3098: real time    0.3099
  RMM-DIIS:  cpu time    1.5458: real time    1.5466
    ORTHCH:  cpu time    0.0674: real time    0.0674
       DOS:  cpu time    0.0016: real time    0.0016
    CHARGE:  cpu time    0.1088: real time    0.1089
    MIXING:  cpu time    0.0045: real time    0.0045
    --------------------------------------------
      LOOP:  cpu time    2.2345: real time    2.2470

 eigenvalue-minimisations  :   742
 total energy-change (2. order) :-0.6324348E+01  (-0.1617102E+01)
 number of electron     608.0000030 magnetization 
 augmentation part      334.4947154 magnetization 

 Broyden mixing:
  rms(total) = 0.50815E+01    rms(broyden)= 0.50813E+01
  rms(prec ) = 0.59781E+01
  weight for this iteration     100.00

 eigenvalues of (default mixing * dielectric matrix)
  average eigenvalue GAMMA=   0.2961
  1.3757  0.2957  0.2957  0.1367  0.0842  0.0778  0.0624  0.0404

 Free energy of the ion-electron system (eV)
  ---------------------------------------------------
  alpha Z        PSCENC =      1449.59834672
  Ewald energy   TEWEN  =    197569.37391233
  -Hartree energ DENC   =   -252681.49726238
  -exchange      EXHF   =         0.00000000
  -V(xc)+E(xc)   XCENC  =      1238.04152033
  PAW double counting   =     60966.25613976   -63504.10563662
  entropy T*S    EENTRO =        -2.62627667
  eigenvalues    EBANDS =     -1634.90450441
  atomic energy  EATOM  =     56148.62337470
  Solvation  Ediel_sol  =         0.00000000
  ---------------------------------------------------
  free energy    TOTEN  =      -451.24038626 eV

  energy without entropy =     -448.61410959  energy(sigma->0) =     -449.92724793


--------------------------------------------------------------------------------------------------------




--------------------------------------- Iteration      1(  14)  ---------------------------------------


    POTLOK:  cpu time    0.1861: real time    0.1999
    SETDIJ:  cpu time    0.0107: real time    0.0107
    EDDIAG:  cpu time    0.3090: real time    0.3090
  RMM-DIIS:  cpu time    1.5337: real time    1.5342
    ORTHCH:  cpu time    0.0673: real time    0.0673
       DOS:  cpu time    0.0018: real time    0.0018
    CHARGE:  cpu time    0.1098: real time    0.1098
    MIXING:  cpu time    0.0046: real time    0.0045
    --------------------------------------------
      LOOP:  cpu time    2.2230: real time    2.2373

 eigenvalue-minimisations  :   735
 total energy-change (2. order) : 0.7008560E+01  (-0.9960038E+00)
 number of electron     608.0000032 magnetization 
 augmentation part      334.3767953 magnetization 

 Broyden mixing:
  rms(total) = 0.31867E+01    rms(broyden)= 0.31864E+01
  rms(prec ) = 0.36550E+01
  weight for this iteration     100.00

 eigenvalues of (default mixing * dielectric matrix)
  average eigenvalue GAMMA=   0.3014
  1.5827  0.2947  0.2947  0.1894  0.0979  0.0404  0.0749  0.0707  0.0676

 Free energy of the ion-electron system (eV)
  ---------------------------------------------------
  alpha Z        PSCENC =      1449.59834672
  Ewald energy   TEWEN  =    197569.37391233
  -Hartree energ DENC   =   -252693.54539119
  -exchange      EXHF   =         0.00000000
  -V(xc)+E(xc)   XCENC  =      1238.22411259
  PAW double counting   =     60838.64085427   -63372.79034002
  entropy T*S    EENTRO =        -2.86618191
  eigenvalues    EBANDS =     -1619.49051380
  atomic energy  EATOM  =     56148.62337470
  Solvation  Ediel_sol  =         0.00000000
  ---------------------------------------------------
  free energy    TOTEN  =      -444.23182633 eV

  energy without entropy =     -441.36564442  energy(sigma->0) =     -442.79873537


--------------------------------------------------------------------------------------------------------




--------------------------------------- Iteration      1(  15)  ---------------------------------------


    POTLOK:  cpu time    0.1870: real time    0.1981
    SETDIJ:  cpu time    0.0106: real time    0.0106
    EDDIAG:  cpu time    0.3088: real time    0.3090
  RMM-DIIS:  cpu time    1.5317: real time    1.5321
    ORTHCH:  cpu time    0.0673: real time    0.0673
       DOS:  cpu time    0.0018: real time    0.0017
    CHARGE:  cpu time    0.1098: real time    0.1098
    MIXING:  cpu time    0.0048: real time    0.0047
    --------------------------------------------
      LOOP:  cpu time    2.2218: real time    2.2335

 eigenvalue-minimisations  :   736
 total energy-change (2. order) : 0.1205375E+01  (-0.5204660E+00)
 number of electron     608.0000024 magnetization 
 augmentation part      334.5379164 magnetization 

 Broyden mixing:
  rms(total) = 0.29090E+01    rms(broyden)= 0.29089E+01
  rms(prec ) = 0.33128E+01
  weight for this iteration     100.00

 eigenvalues of (default mixing * dielectric matrix)
  average eigenvalue GAMMA=   0.3390
  1.9429  0.4265  0.2892  0.2892  0.1146  0.0839  0.0839  0.0404  0.0625  0.0572

 Free energy of the ion-electron system (eV)
  ---------------------------------------------------
  alpha Z        PSCENC =      1449.59834672
  Ewald energy   TEWEN  =    197569.37391233
  -Hartree energ DENC   =   -252688.62630467
  -exchange      EXHF   =         0.00000000
  -V(xc)+E(xc)   XCENC  =      1238.16470368
  PAW double counting   =     60781.94545514   -63314.05569068
  entropy T*S    EENTRO =        -2.70270882
  eigenvalues    EBANDS =     -1625.34753990
  atomic energy  EATOM  =     56148.62337470
  Solvation  Ediel_sol  =         0.00000000
  ---------------------------------------------------
  free energy    TOTEN  =      -443.02645149 eV

  energy without entropy =     -440.32374268  energy(sigma->0) =     -441.67509709


--------------------------------------------------------------------------------------------------------




--------------------------------------- Iteration      1(  16)  ---------------------------------------


    POTLOK:  cpu time    0.1857: real time    0.1975
    SETDIJ:  cpu time    0.0107: real time    0.0106
    EDDIAG:  cpu time    0.3094: real time    0.3094
  RMM-DIIS:  cpu time    1.5347: real time    1.5351
    ORTHCH:  cpu time    0.0676: real time    0.0676
       DOS:  cpu time    0.0018: real time    0.0018
    CHARGE:  cpu time    0.1086: real time    0.1086
    MIXING:  cpu time    0.0052: real time    0.0052
    --------------------------------------------
      LOOP:  cpu time    2.2236: real time    2.2359

 eigenvalue-minimisations  :   737
 total energy-change (2. order) :-0.1391323E+00  (-0.4557341E+00)
 number of electron     608.0000029 magnetization 
 augmentation part      334.9406221 magnetization 

 Broyden mixing:
  rms(total) = 0.27915E+01    rms(broyden)= 0.27914E+01
  rms(prec ) = 0.31697E+01
  weight for this iteration     100.00

 eigenvalues of (default mixing * dielectric matrix)
  average eigenvalue GAMMA=   0.3474
  2.1919  0.5163  0.2900  0.2900  0.1095  0.1095  0.0796  0.0796  0.0404  0.0602
  0.0546

 Free energy of the ion-electron system (eV)
  ---------------------------------------------------
  alpha Z        PSCENC =      1449.59834672
  Ewald energy   TEWEN  =    197569.37391233
  -Hartree energ DENC   =   -252676.89653123
  -exchange      EXHF   =         0.00000000
  -V(xc)+E(xc)   XCENC  =      1237.71806771
  PAW double counting   =     60679.86749151   -63207.10759281
  entropy T*S    EENTRO =        -2.91282305
  eigenvalues    EBANDS =     -1641.42982967
  atomic energy  EATOM  =     56148.62337470
  Solvation  Ediel_sol  =         0.00000000
  ---------------------------------------------------
  free energy    TOTEN  =      -443.16558380 eV

  energy without entropy =     -440.25276075  energy(sigma->0) =     -441.70917227


--------------------------------------------------------------------------------------------------------




--------------------------------------- Iteration      1(  17)  ---------------------------------------


    POTLOK:  cpu time    0.1874: real time    0.2010
    SETDIJ:  cpu time    0.0106: real time    0.0106
    EDDIAG:  cpu time    0.3190: real time    0.3191
  RMM-DIIS:  cpu time    1.5250: real time    1.5257
    ORTHCH:  cpu time    0.0665: real time    0.0665
       DOS:  cpu time    0.0016: real time    0.0016
    CHARGE:  cpu time    0.1104: real time    0.1104
    MIXING:  cpu time    0.0069: real time    0.0069
    --------------------------------------------
      LOOP:  cpu time    2.2274: real time    2.2419

 eigenvalue-minimisations  :   738
 total energy-change (2. order) : 0.1954808E+01  (-0.2240403E+00)
 number of electron     608.0000028 magnetization 
 augmentation part      335.0338970 magnetization 

 Broyden mixing:
  rms(total) = 0.17833E+01    rms(broyden)= 0.17831E+01
  rms(prec ) = 0.20297E+01
  weight for this iteration     100.00

 eigenvalues of (default mixing * dielectric matrix)
  average eigenvalue GAMMA=   0.3363
  2.2718  0.5507  0.2896  0.2896  0.1272  0.1272  0.0836  0.0790  0.0404  0.0617
  0.0617  0.0527

 Free energy of the ion-electron system (eV)
  ---------------------------------------------------
  alpha Z        PSCENC =      1449.59834672
  Ewald energy   TEWEN  =    197569.37391233
  -Hartree energ DENC   =   -252671.56321823
  -exchange      EXHF   =         0.00000000
  -V(xc)+E(xc)   XCENC  =      1237.53740180
  PAW double counting   =     60622.09080454   -63147.30827611
  entropy T*S    EENTRO =        -2.89190509
  eigenvalues    EBANDS =     -1646.67121681
  atomic energy  EATOM  =     56148.62337470
  Solvation  Ediel_sol  =         0.00000000
  ---------------------------------------------------
  free energy    TOTEN  =      -441.21077616 eV

  energy without entropy =     -438.31887106  energy(sigma->0) =     -439.76482361


--------------------------------------------------------------------------------------------------------




--------------------------------------- Iteration      1(  18)  ---------------------------------------


    POTLOK:  cpu time    0.1856: real time    0.1979
    SETDIJ:  cpu time    0.0107: real time    0.0107
    EDDIAG:  cpu time    0.3137: real time    0.3137
  RMM-DIIS:  cpu time    1.5448: real time    1.5452
    ORTHCH:  cpu time    0.0669: real time    0.0669
       DOS:  cpu time    0.0017: real time    0.0017
    CHARGE:  cpu time    0.1092: real time    0.1092
    MIXING:  cpu time    0.0055: real time    0.0055
    --------------------------------------------
      LOOP:  cpu time    2.2381: real time    2.2509

 eigenvalue-minimisations  :   742
 total energy-change (2. order) : 0.8040712E+00  (-0.7840886E-01)
 number of electron     608.0000028 magnetization 
 augmentation part      335.1005711 magnetization 

 Broyden mixing:
  rms(total) = 0.87235E+00    rms(broyden)= 0.87225E+00
  rms(prec ) = 0.99366E+00
  weight for this iteration     100.00

 eigenvalues of (default mixing * dielectric matrix)
  average eigenvalue GAMMA=   0.3250
  2.3289  0.5364  0.2888  0.2888  0.1784  0.1387  0.0927  0.0801  0.0801  0.0404
  0.0624  0.0595  0.0505

 Free energy of the ion-electron system (eV)
  ---------------------------------------------------
  alpha Z        PSCENC =      1449.59834672
  Ewald energy   TEWEN  =    197569.37391233
  -Hartree energ DENC   =   -252673.88225851
  -exchange      EXHF   =         0.00000000
  -V(xc)+E(xc)   XCENC  =      1237.36733600
  PAW double counting   =     60595.25326570   -63119.18398686
  entropy T*S    EENTRO =        -2.96722578
  eigenvalues    EBANDS =     -1644.58946922
  atomic energy  EATOM  =     56148.62337470
  Solvation  Ediel_sol  =         0.00000000
  ---------------------------------------------------
  free energy    TOTEN  =      -440.40670492 eV

  energy without entropy =     -437.43947914  energy(sigma->0) =     -438.92309203


--------------------------------------------------------------------------------------------------------




--------------------------------------- Iteration      1(  19)  ---------------------------------------


    POTLOK:  cpu time    0.1849: real time    0.1969
    SETDIJ:  cpu time    0.0107: real time    0.0107
    EDDIAG:  cpu time    0.3108: real time    0.3109
  RMM-DIIS:  cpu time    1.5385: real time    1.5388
    ORTHCH:  cpu time    0.0667: real time    0.0667
       DOS:  cpu time    0.0018: real time    0.0018
    CHARGE:  cpu time    0.1098: real time    0.1099
    MIXING:  cpu time    0.0054: real time    0.0054
    --------------------------------------------
      LOOP:  cpu time    2.2286: real time    2.2411

 eigenvalue-minimisations  :   740
 total energy-change (2. order) : 0.1162460E+00  (-0.4087055E-01)
 number of electron     608.0000027 magnetization 
 augmentation part      335.1761937 magnetization 

 Broyden mixing:
  rms(total) = 0.71191E+00    rms(broyden)= 0.71186E+00
  rms(prec ) = 0.80157E+00
  weight for this iteration     100.00

 eigenvalues of (default mixing * dielectric matrix)
  average eigenvalue GAMMA=   0.3412
  2.4493  0.5173  0.5173  0.2920  0.2920  0.1443  0.1170  0.0866  0.0821  0.0727
  0.0404  0.0611  0.0568  0.0479

 Free energy of the ion-electron system (eV)
  ---------------------------------------------------
  alpha Z        PSCENC =      1449.59834672
  Ewald energy   TEWEN  =    197569.37391233
  -Hartree energ DENC   =   -252674.97524611
  -exchange      EXHF   =         0.00000000
  -V(xc)+E(xc)   XCENC  =      1237.35101096
  PAW double counting   =     60578.86439690   -63102.34225131
  entropy T*S    EENTRO =        -2.99037387
  eigenvalues    EBANDS =     -1643.79362921
  atomic energy  EATOM  =     56148.62337470
  Solvation  Ediel_sol  =         0.00000000
  ---------------------------------------------------
  free energy    TOTEN  =      -440.29045889 eV

  energy without entropy =     -437.30008502  energy(sigma->0) =     -438.79527195


--------------------------------------------------------------------------------------------------------




--------------------------------------- Iteration      1(  20)  ---------------------------------------


[...]
     10.087402  0.005616  4.049338            0           0           0  
     -2.533390  8.735124  4.081899            0           0           0  
      5.030576  0.016856  4.076606            0           0           0  
      8.815571  2.192677  4.079497            0           0           0  
      1.260357  2.176827  4.063429            0           0           0  
      2.534232  1.443025  6.083122            0           0           0  
      6.287892  2.211107  4.105703            0           0           0  
      3.801807  0.734234  2.000365            0           0           0  
      3.727651  0.763986  8.100953            0           0           0  
      7.579678  1.430643  6.173227            0           0           0  
      6.318840  0.741083  2.033840            0           0           0  
      6.224971  0.799481  8.282042            0           0           0  
      7.570506  4.365760  4.102834            0           0           0  
      5.038171  4.362287  4.081707            0           0           0  
      3.798181  3.602793  6.069388            0           0           0  
      2.554616  2.916038  2.000833            0           0           0  
      2.513511  2.907556  8.105612            0           0           0  
      6.289537  3.612767  6.099383            0           0           0  
      7.585848  2.930427  2.033712            0           0           0  
      7.551554  2.917996  8.152389            0           0           0  
      6.294246  6.551326  4.092632            0           0           0  
     -2.541455  5.788923  6.104916            0           0           0  
      3.813887  6.575459  4.072844            0           0           0  
      1.268710  5.104157  2.045338            0           0           0  
      1.224229  5.115751  8.193393            0           0           0  
      6.294498  5.113735  2.028229            0           0           0  
      6.215467  5.098378  8.170950            0           0           0  
     -2.531390  7.303045  2.009908            0           0           0  
     -2.565507  7.309992  8.012132            0           0           0  
      0.004636  7.289749  2.057219            0           0           0  
     -0.069584  7.229585  8.175307            0           0           0  
      5.085834  7.283180  2.027570            0           0           0  
      5.065949  7.223658  8.141401            0           0           0  
      7.544053  0.039694  4.104385            0           0           0  
     -0.011250  1.435500  6.059555            0           0           0  
      3.741862  2.146894  4.073886            0           0           0  
      1.310005  0.729449  2.026741            0           0           0  
      1.317116  0.795196  8.092660            0           0           0  
      5.103616  1.367851  6.094126            0           0           0  
      8.827908  0.750635  2.000004            0           0           0  
      8.832736  0.782315  8.268113            0           0           0  
     -0.024064  4.344636  4.116840            0           0           0  
     -1.351939  3.631804  6.100553            0           0           0  
      2.557020  4.370247  4.058689            0           0           0  
      1.297106  3.626674  6.094831            0           0           0  
      0.022150  2.949898  2.029844            0           0           0  
     -0.013280  2.950096  8.038839            0           0           0  
      5.097187  2.938868  2.040429            0           0           0  
      5.021102  2.957753  8.039496            0           0           0  
     -1.327635  6.583961  4.111250            0           0           0  
      1.246999  6.559320  4.093631            0           0           0  
      0.048481  5.776087  6.151207            0           0           0  
     -1.297178  5.128186  2.068654            0           0           0  
     -1.287179  5.149530  8.209341            0           0           0  
      2.572810  5.811844  6.096396            0           0           0  
      5.055016  5.744547  6.107816            0           0           0  
      3.792606  5.110613  2.023341            0           0           0  
      3.760307  5.156105  8.198572            0           0           0  
     -3.801740  7.971832  6.045577            0           0           0  
     -1.262884  7.964118  6.094546            0           0           0  
      1.232735  7.979830  6.050909            0           0           0  
      3.782068  7.996536  6.126706            0           0           0  
      2.541829  7.290825  2.053075            0           0           0  
      2.449687  7.262463  8.143103            0           0           0  
      0.144534  0.020856  9.226656            0           0           0  
      2.560006  4.350286  9.295173            0           0           0  
      7.553419  4.391155  9.293617            0           0           0  
     -0.204124  8.715737  9.262494            0           0           0  
      2.518400  8.693760  9.291919    -0.578878   -0.102650    0.808927  
 
   2 f  =   13.478039 THz    84.685016 2PiTHz  449.578974 cm-1    55.740709 meV
             X         Y         Z           dx          dy          dz
     10.087402  0.005616  4.049338            0           0           0  
     -2.533390  8.735124  4.081899            0           0           0  
      5.030576  0.016856  4.076606            0           0           0  
      8.815571  2.192677  4.079497            0           0           0  
      1.260357  2.176827  4.063429            0           0           0  
      2.534232  1.443025  6.083122            0           0           0  
      6.287892  2.211107  4.105703            0           0           0  
      3.801807  0.734234  2.000365            0           0           0  
      3.727651  0.763986  8.100953            0           0           0  
      7.579678  1.430643  6.173227            0           0           0  
      6.318840  0.741083  2.033840            0           0           0  
      6.224971  0.799481  8.282042            0           0           0  
      7.570506  4.365760  4.102834            0           0           0  
      5.038171  4.362287  4.081707            0           0           0  
      3.798181  3.602793  6.069388            0           0           0  
      2.554616  2.916038  2.000833            0           0           0  
      2.513511  2.907556  8.105612            0           0           0  
      6.289537  3.612767  6.099383            0           0           0  
      7.585848  2.930427  2.033712            0           0           0  
      7.551554  2.917996  8.152389            0           0           0  
      6.294246  6.551326  4.092632            0           0           0  
     -2.541455  5.788923  6.104916            0           0           0  
      3.813887  6.575459  4.072844            0           0           0  
      1.268710  5.104157  2.045338            0           0           0  
      1.224229  5.115751  8.193393            0           0           0  
      6.294498  5.113735  2.028229            0           0           0  
      6.215467  5.098378  8.170950            0           0           0  
     -2.531390  7.303045  2.009908            0           0           0  
     -2.565507  7.309992  8.012132            0           0           0  
      0.004636  7.289749  2.057219            0           0           0  
     -0.069584  7.229585  8.175307            0           0           0  
      5.085834  7.283180  2.027570            0           0           0  
      5.065949  7.223658  8.141401            0           0           0  
      7.544053  0.039694  4.104385            0           0           0  
     -0.011250  1.435500  6.059555            0           0           0  
      3.741862  2.146894  4.073886            0           0           0  
      1.310005  0.729449  2.026741            0           0           0  
      1.317116  0.795196  8.092660            0           0           0  
      5.103616  1.367851  6.094126            0           0           0  
      8.827908  0.750635  2.000004            0           0           0  
      8.832736  0.782315  8.268113            0           0           0  
     -0.024064  4.344636  4.116840            0           0           0  
     -1.351939  3.631804  6.100553            0           0           0  
      2.557020  4.370247  4.058689            0           0           0  
      1.297106  3.626674  6.094831            0           0           0  
      0.022150  2.949898  2.029844            0           0           0  
     -0.013280  2.950096  8.038839            0           0           0  
      5.097187  2.938868  2.040429            0           0           0  
      5.021102  2.957753  8.039496            0           0           0  
     -1.327635  6.583961  4.111250            0           0           0  
      1.246999  6.559320  4.093631            0           0           0  
      0.048481  5.776087  6.151207            0           0           0  
     -1.297178  5.128186  2.068654            0           0           0  
     -1.287179  5.149530  8.209341            0           0           0  
      2.572810  5.811844  6.096396            0           0           0  
      5.055016  5.744547  6.107816            0           0           0  
      3.792606  5.110613  2.023341            0           0           0  
      3.760307  5.156105  8.198572            0           0           0  
     -3.801740  7.971832  6.045577            0           0           0  
     -1.262884  7.964118  6.094546            0           0           0  
      1.232735  7.979830  6.050909            0           0           0  
      3.782068  7.996536  6.126706            0           0           0  
      2.541829  7.290825  2.053075            0           0           0  
      2.449687  7.262463  8.143103            0           0           0  
      0.144534  0.020856  9.226656            0           0           0  
      2.560006  4.350286  9.295173            0           0           0  
      7.553419  4.391155  9.293617            0           0           0  
     -0.204124  8.715737  9.262494            0           0           0  
      2.518400  8.693760  9.291919     0.799183    0.125529    0.587835  
 
   3 f  =   10.802475 THz    67.873950 2PiTHz  360.331757 cm-1    44.675460 meV
             X         Y         Z           dx          dy          dz
     10.087402  0.005616  4.049338            0           0           0  
     -2.533390  8.735124  4.081899            0           0           0  
      5.030576  0.016856  4.076606            0           0           0  
      8.815571  2.192677  4.079497            0           0           0  
      1.260357  2.176827  4.063429            0           0           0  
      2.534232  1.443025  6.083122            0           0           0  
      6.287892  2.211107  4.105703            0           0           0  
      3.801807  0.734234  2.000365            0           0           0  
      3.727651  0.763986  8.100953            0           0           0  
      7.579678  1.430643  6.173227            0           0           0  
      6.318840  0.741083  2.033840            0           0           0  
      6.224971  0.799481  8.282042            0           0           0  
      7.570506  4.365760  4.102834            0           0           0  
      5.038171  4.362287  4.081707            0           0           0  
      3.798181  3.602793  6.069388            0           0           0  
      2.554616  2.916038  2.000833            0           0           0  
      2.513511  2.907556  8.105612            0           0           0  
      6.289537  3.612767  6.099383            0           0           0  
      7.585848  2.930427  2.033712            0           0           0  
      7.551554  2.917996  8.152389            0           0           0  
      6.294246  6.551326  4.092632            0           0           0  
     -2.541455  5.788923  6.104916            0           0           0  
      3.813887  6.575459  4.072844            0           0           0  
      1.268710  5.104157  2.045338            0           0           0  
      1.224229  5.115751  8.193393            0           0           0  
      6.294498  5.113735  2.028229            0           0           0  
      6.215467  5.098378  8.170950            0           0           0  
     -2.531390  7.303045  2.009908            0           0           0  
     -2.565507  7.309992  8.012132            0           0           0  
      0.004636  7.289749  2.057219            0           0           0  
     -0.069584  7.229585  8.175307            0           0           0  
      5.085834  7.283180  2.027570            0           0           0  
      5.065949  7.223658  8.141401            0           0           0  
      7.544053  0.039694  4.104385            0           0           0  
     -0.011250  1.435500  6.059555            0           0           0  
      3.741862  2.146894  4.073886            0           0           0  
      1.310005  0.729449  2.026741            0           0           0  
      1.317116  0.795196  8.092660            0           0           0  
      5.103616  1.367851  6.094126            0           0           0  
      8.827908  0.750635  2.000004            0           0           0  
      8.832736  0.782315  8.268113            0           0           0  
     -0.024064  4.344636  4.116840            0           0           0  
     -1.351939  3.631804  6.100553            0           0           0  
      2.557020  4.370247  4.058689            0           0           0  
      1.297106  3.626674  6.094831            0           0           0  
      0.022150  2.949898  2.029844            0           0           0  
     -0.013280  2.950096  8.038839            0           0           0  
      5.097187  2.938868  2.040429            0           0           0  
      5.021102  2.957753  8.039496            0           0           0  
     -1.327635  6.583961  4.111250            0           0           0  
      1.246999  6.559320  4.093631            0           0           0  
      0.048481  5.776087  6.151207            0           0           0  
     -1.297178  5.128186  2.068654            0           0           0  
     -1.287179  5.149530  8.209341            0           0           0  
      2.572810  5.811844  6.096396            0           0           0  
      5.055016  5.744547  6.107816            0           0           0  
      3.792606  5.110613  2.023341            0           0           0  
      3.760307  5.156105  8.198572            0           0           0  
     -3.801740  7.971832  6.045577            0           0           0  
     -1.262884  7.964118  6.094546            0           0           0  
      1.232735  7.979830  6.050909            0           0           0  
      3.782068  7.996536  6.126706            0           0           0  
      2.541829  7.290825  2.053075            0           0           0  
      2.449687  7.262463  8.143103            0           0           0  
      0.144534  0.020856  9.226656            0           0           0  
      2.560006  4.350286  9.295173            0           0           0  
      7.553419  4.391155  9.293617            0           0           0  
     -0.204124  8.715737  9.262494            0           0           0  
      2.518400  8.693760  9.291919     0.161885   -0.986765   -0.009370  
 
 Finite differences POTIM=  1.500000000000000E-002
     LOOP+:  cpu time   57.1227: real time   57.4503
    4ORBIT:  cpu time    0.0000: real time    0.0000
 


 total charge     
 
# of ion       s       p       d       tot
------------------------------------------
    1        0.498   0.499   8.301   9.298
    2        0.504   0.507   8.307   9.318
    3        0.509   0.510   8.311   9.330
    4        0.500   0.499   8.305   9.303
    5        0.506   0.511   8.292   9.309
    6        0.518   0.521   8.317   9.356
    7        0.494   0.490   8.308   9.292
    8        0.488   0.354   8.311   9.153
    9        0.519   0.545   8.323   9.387
   10        0.509   0.503   8.303   9.315
   11        0.496   0.361   8.309   9.165
   12        0.467   0.553   8.322   9.342
   13        0.497   0.496   8.318   9.310
   14        0.501   0.504   8.312   9.317
   15        0.520   0.520   8.312   9.351
   16        0.502   0.373   8.294   9.169
   17        0.501   0.509   8.326   9.336
   18        0.515   0.506   8.328   9.349
   19        0.496   0.368   8.303   9.167
   20        0.491   0.494   8.331   9.316
   21        0.493   0.486   8.327   9.306
   22        0.513   0.507   8.315   9.335
   23        0.503   0.508   8.291   9.303
   24        0.505   0.379   8.292   9.177
   25        0.497   0.505   8.310   9.312
   26        0.495   0.362   8.316   9.172
   27        0.494   0.494   8.319   9.308
   28        0.495   0.357   8.313   9.165
   29        0.496   0.371   8.369   9.236
   30        0.490   0.360   8.305   9.155
   31        0.504   0.504   8.310   9.318
   32        0.495   0.367   8.310   9.172
   33        0.490   0.481   8.316   9.287
   34        0.456   0.484   6.244   7.184
   35        0.467   0.488   6.256   7.211
   36        0.455   0.478   6.256   7.189
   37        0.448   0.344   6.246   7.038
   38        0.473   0.514   6.309   7.296
   39        0.469   0.483   6.275   7.227
   40        0.448   0.341   6.232   7.021
   41        0.445   0.567   6.313   7.325
   42        0.467   0.494   6.249   7.211
   43        0.471   0.493   6.269   7.234
   44        0.461   0.489   6.252   7.202
   45        0.473   0.490   6.276   7.239
   46        0.451   0.348   6.241   7.040
   47        0.463   0.366   6.290   7.120
   48        0.448   0.345   6.247   7.040
   49        0.447   0.358   6.307   7.112
   50        0.458   0.488   6.249   7.196
   51        0.467   0.487   6.256   7.210
   52        0.478   0.504   6.264   7.246
   53        0.453   0.347   6.245   7.045
   54        0.460   0.488   6.280   7.227
   55        0.480   0.503   6.268   7.252
   56        0.471   0.494   6.276   7.241
   57        0.454   0.354   6.246   7.054
   58        0.472   0.512   6.291   7.275
   59        0.467   0.486   6.272   7.225
   60        0.471   0.488   6.284   7.244
   61        0.482   0.495   6.274   7.251
   62        0.465   0.480   6.252   7.196
   63        0.453   0.349   6.244   7.046
   64        0.455   0.468   6.314   7.237
   65        1.585   3.342   0.000   4.928
   66        1.584   3.331   0.000   4.915
   67        1.583   3.334   0.000   4.916
   68        1.585   3.335   0.000   4.920
   69        1.588   3.347   0.000   4.935
--------------------------------------------------
tot         38.757  46.014 468.607 553.378
 

 total amount of memory used by VASP MPI-rank0    54074. kBytes
=======================================================================

   base      :      30000. kBytes
   nonlr-proj:       4038. kBytes
   fftplans  :       5965. kBytes
   grid      :      11929. kBytes
   one-center:         23. kBytes
   wavefun   :       2119. kBytes
 
  
  
 General timing and accounting informations for this job:
 ========================================================
  
                  Total CPU time used (sec):      459.218
                            User time (sec):      450.092
                          System time (sec):        9.126
                         Elapsed time (sec):      463.323
  
                   Maximum memory used (kb):      293020.
                   Average memory used (kb):           0.
  
                          Minor page faults:      2611989
                          Major page faults:           21
                 Voluntary context switches:         2296
