       N       E                     dE             d eps       ncg     rms          rms(c)
DAV:   1    -0.500375198300E+03   -0.50038E+03   -0.13062E-01  8754   0.288E+00    0.969E-01
RMM:   2    -0.500648702081E+03   -0.27350E+00   -0.19307E-01  7775   0.142E+00    0.383E+00
RMM:   3    -0.500579438972E+03    0.69263E-01   -0.64028E-02  7741   0.746E-01    0.106E+00
RMM:   4    -0.500603792659E+03   -0.24354E-01   -0.25157E-02  8068   0.393E-01    0.236E+00
RMM:   5    -0.500586519403E+03    0.17273E-01   -0.91034E-03  7943   0.264E-01    0.115E+00
RMM:   6    -0.500580590901E+03    0.59285E-02   -0.35099E-03  8072   0.146E-01    0.551E-01
RMM:   7    -0.500581411441E+03   -0.82054E-03   -0.41444E-03  7952   0.160E-01    0.803E-01
RMM:   8    -0.500578600627E+03    0.28108E-02   -0.26467E-03  7888   0.136E-01    0.518E-01
RMM:   9    -0.500577345401E+03    0.12552E-02   -0.15433E-03  7916   0.106E-01    0.301E-01
RMM:  10    -0.500577212988E+03    0.13241E-03   -0.14889E-03  8069   0.961E-02    0.503E-01
RMM:  11    -0.500575213956E+03    0.19990E-02   -0.10032E-03  7889   0.882E-02    0.232E-01
RMM:  12    -0.500575141919E+03    0.72037E-04   -0.67617E-04  7952   0.646E-02    0.304E-01
RMM:  13    -0.500574784951E+03    0.35697E-03   -0.38827E-04  7972   0.497E-02    0.230E-01
RMM:  14    -0.500574960000E+03   -0.17505E-03   -0.22279E-04  7987   0.379E-02    0.204E-01
RMM:  15    -0.500575741094E+03   -0.78109E-03   -0.21876E-04  8135   0.327E-02    0.229E-01
RMM:  16    -0.500576487347E+03   -0.74625E-03   -0.15850E-04  8001   0.285E-02    0.185E-01
RMM:  17    -0.500577077720E+03   -0.59037E-03   -0.10554E-04  8377   0.208E-02    0.194E-01
RMM:  18    -0.500577995343E+03   -0.91762E-03   -0.97437E-05  8362   0.180E-02    0.190E-01
RMM:  19    -0.500578192055E+03   -0.19671E-03   -0.25969E-05  9899   0.749E-03    0.191E-01
RMM:  20    -0.500576550756E+03    0.16413E-02   -0.20864E-04  7742   0.329E-02    0.204E-01
RMM:  21    -0.500575832845E+03    0.71791E-03   -0.11760E-04  7923   0.221E-02    0.181E-01
RMM:  22    -0.500575246634E+03    0.58621E-03   -0.16319E-04  7947   0.257E-02    0.193E-01
RMM:  23    -0.500574053783E+03    0.11929E-02   -0.40281E-04  7849   0.399E-02    0.166E-01
RMM:  24    -0.500573867882E+03    0.18590E-03   -0.37553E-04  8361   0.365E-02    0.175E-01
RMM:  25    -0.500575262479E+03   -0.13946E-02   -0.20612E-03  7751   0.927E-02    0.180E-01
RMM:  26    -0.500576293910E+03   -0.10314E-02   -0.12849E-03  8869   0.612E-02    0.111E-01
RMM:  27    -0.500579342977E+03   -0.30491E-02   -0.98801E-04  7996   0.609E-02    0.161E-01
RMM:  28    -0.500580801228E+03   -0.14583E-02   -0.43372E-04  8191   0.396E-02    0.660E-02
RMM:  29    -0.500582244540E+03   -0.14433E-02   -0.20363E-04  7885   0.303E-02    0.118E-01
RMM:  30    -0.500582898771E+03   -0.65423E-03   -0.12319E-04  7824   0.262E-02    0.373E-02
RMM:  31    -0.500583083443E+03   -0.18467E-03   -0.41945E-05  8333   0.140E-02    0.511E-02
RMM:  32    -0.500583208450E+03   -0.12501E-03   -0.25278E-05  8024   0.110E-02    0.259E-02
RMM:  33    -0.500583299121E+03   -0.90671E-04   -0.11443E-05  8245   0.679E-03    0.291E-02
RMM:  34    -0.500583510077E+03   -0.21096E-03   -0.13953E-05  7639   0.647E-03    0.184E-02
RMM:  35    -0.500583595089E+03   -0.85012E-04   -0.57976E-06  7070   0.461E-03    0.153E-02
RMM:  36    -0.500583817817E+03   -0.22273E-03   -0.10223E-05  6849   0.453E-03    0.158E-02
RMM:  37    -0.500583923142E+03   -0.10533E-03   -0.45810E-06  6097   0.383E-03    0.120E-02
RMM:  38    -0.500584165323E+03   -0.24218E-03   -0.10796E-05  6879   0.406E-03    0.123E-02
RMM:  39    -0.500584276935E+03   -0.11161E-03   -0.44377E-06  5891   0.315E-03    0.104E-02
RMM:  40    -0.500584442492E+03   -0.16556E-03   -0.66458E-06  6024   0.294E-03    0.727E-03
RMM:  41    -0.500584531577E+03   -0.89085E-04   -0.37008E-06  5667   0.282E-03    0.540E-03
RMM:  42    -0.500584657662E+03   -0.12608E-03   -0.68229E-06  5987   0.267E-03    0.494E-03
RMM:  43    -0.500584699450E+03   -0.41789E-04   -0.23498E-06  5501   0.231E-03    0.404E-03
RMM:  44    -0.500584760504E+03   -0.61054E-04   -0.42367E-06  5442   0.213E-03    0.494E-03
RMM:  45    -0.500584775501E+03   -0.14997E-04   -0.11458E-06  5008   0.190E-03    0.551E-03
RMM:  46    -0.500584798922E+03   -0.23421E-04   -0.18258E-06  5293   0.139E-03    0.353E-03
RMM:  47    -0.500584802832E+03   -0.39105E-05   -0.44421E-07  4306   0.135E-03    0.359E-03
RMM:  48    -0.500584812585E+03   -0.97521E-05   -0.88334E-07  4902   0.962E-04    0.151E-03
RMM:  49    -0.500584814021E+03   -0.14360E-05   -0.23012E-07  4019   0.940E-04    0.125E-03
RMM:  50    -0.500584815131E+03   -0.11106E-05   -0.22339E-07  3659   0.644E-04    0.111E-03
RMM:  51    -0.500584815375E+03   -0.24374E-06   -0.84323E-08  2995   0.590E-04
   1 F= -.51550424E+03 E0= -.51550424E+03  d E =0.000000E+00  mag=    98.2456
