 vasp.5.4.4.18Apr17-6-g9f103f2a35 (build Dec 15 2018 21:27:11) complex          
  
 executed on             LinuxIFC date 2022.03.05  22:35:53
 running on   72 total cores
 distrk:  each k-point on   72 cores,    1 groups
 distr:  one band on NCORES_PER_BAND=  24 cores,    3 groups


--------------------------------------------------------------------------------------------------------


 INCAR:
 POTCAR:    PAW_PBE Fe 06Sep2000                  
 POTCAR:    PAW_PBE Ni 02Aug2007                  
 POTCAR:    PAW_PBE O 08Apr2002                   
 POTCAR:    PAW_PBE H 15Jun2001                   

 ----------------------------------------------------------------------------- 
|                                                                             |
|           W    W    AA    RRRRR   N    N  II  N    N   GGGG   !!!           |
|           W    W   A  A   R    R  NN   N  II  NN   N  G    G  !!!           |
|           W    W  A    A  R    R  N N  N  II  N N  N  G       !!!           |
|           W WW W  AAAAAA  RRRRR   N  N N  II  N  N N  G  GGG   !            |
|           WW  WW  A    A  R   R   N   NN  II  N   NN  G    G                |
|           W    W  A    A  R    R  N    N  II  N    N   GGGG   !!!           |
|                                                                             |
|      For optimal performance we recommend to set                            |
|        NCORE= 4 - approx SQRT( number of cores)                             |
|      NCORE specifies how many cores store one orbital (NPAR=cpu/NCORE).     |
|      This setting can  greatly improve the performance of VASP for DFT.     |
|      The default,   NCORE=1            might be grossly inefficient         |
|      on modern multi-core architectures or massively parallel machines.     |
|      Do your own testing !!!!                                               |
|      Unfortunately you need to use the default for GW and RPA calculations. |
|      (for HF NCORE is supported but not extensively tested yet)             |
|                                                                             |
 ----------------------------------------------------------------------------- 

 POTCAR:    PAW_PBE Fe 06Sep2000                  
   VRHFIN =Fe:  d7 s1                                                           
   LEXCH  = PE                                                                  
   EATOM  =   594.3153 eV,   43.6809 Ry                                         
                                                                                
   TITEL  = PAW_PBE Fe 06Sep2000                                                
   LULTRA =        F    use ultrasoft PP ?                                      
   IUNSCR =        1    unscreen: 0-lin 1-nonlin 2-no                           
   RPACOR =    2.000    partial core radius                                     
   POMASS =   55.847; ZVAL   =    8.000    mass and valenz                      
   RCORE  =    2.300    outmost cutoff radius                                   
   RWIGS  =    2.460; RWIGS  =    1.302    wigner-seitz radius (au A)           
   ENMAX  =  267.882; ENMIN  =  200.911 eV                                      
   RCLOC  =    1.701    cutoff for local pot                                    
   LCOR   =        T    correct aug charges                                     
   LPAW   =        T    paw PP                                                  
   EAUG   =  511.368                                                            
   DEXC   =    0.000                                                            
   RMAX   =    2.356    core radius for proj-oper                               
   RAUG   =    1.300    factor for augmentation sphere                          
   RDEP   =    2.442    radius for radial grids                                 
   RDEPT  =    1.890    core radius for aug-charge                              
                                                                                
   Atomic configuration                                                         
    9 entries                                                                   
     n  l   j            E        occ.                                          
     1  0  0.50     -6993.8440   2.0000                                         
     2  0  0.50      -814.6047   2.0000                                         
     2  1  1.50      -693.3689   6.0000                                         
     3  0  0.50       -89.4732   2.0000                                         
     3  1  1.50       -55.6373   6.0000                                         
     3  2  2.50        -3.8151   7.0000                                         
     4  0  0.50        -4.2551   1.0000                                         
     4  1  1.50        -3.4015   0.0000                                         
     4  3  2.50        -1.3606   0.0000                                         
   Description                                                                  
     l       E           TYP  RCUT    TYP  RCUT                                 
     2     -3.8151135     23  2.300                                             
     2     -5.1756961     23  2.300                                             
     0     -4.2550963     23  2.300                                             
     0      7.2035603     23  2.300                                             
     1     -2.7211652     23  2.300                                             
     1     18.4316424     23  2.300                                             
  local pseudopotential read in
  partial core-charges read in
  partial kinetic energy density read in
  atomic valenz-charges read in
  non local Contribution for L=           2  read in
    real space projection operators read in
  non local Contribution for L=           2  read in
    real space projection operators read in
  non local Contribution for L=           0  read in
    real space projection operators read in
  non local Contribution for L=           0  read in
    real space projection operators read in
  non local Contribution for L=           1  read in
    real space projection operators read in
  non local Contribution for L=           1  read in
    real space projection operators read in
    PAW grid and wavefunctions read in
 
   number of l-projection  operators is LMAX  =           6
   number of lm-projection operators is LMMAX =          18
 
 POTCAR:    PAW_PBE Ni 02Aug2007                  
   VRHFIN =Ni:                                                                  
   LEXCH  = PE                                                                  
   EATOM  =  1077.6739 eV,   79.2068 Ry                                         
                                                                                
   TITEL  = PAW_PBE Ni 02Aug2007                                                
   LULTRA =        F    use ultrasoft PP ?                                      
   IUNSCR =        1    unscreen: 0-lin 1-nonlin 2-no                           
   RPACOR =    2.000    partial core radius                                     
   POMASS =   58.690; ZVAL   =   10.000    mass and valenz                      
   RCORE  =    2.300    outmost cutoff radius                                   
   RWIGS  =    2.430; RWIGS  =    1.286    wigner-seitz radius (au A)           
   ENMAX  =  269.532; ENMIN  =  202.149 eV                                      
   RCLOC  =    1.201    cutoff for local pot                                    
   LCOR   =        T    correct aug charges                                     
   LPAW   =        T    paw PP                                                  
   EAUG   =  544.565                                                            
   DEXC   =    0.000                                                            
   RMAX   =    2.357    core radius for proj-oper                               
   RAUG   =    1.300    factor for augmentation sphere                          
   RDEP   =    2.390    radius for radial grids                                 
   RDEPT  =    1.838    core radius for aug-charge                              
                                                                                
   Atomic configuration                                                         
    9 entries                                                                   
     n  l   j            E        occ.                                          
     1  0  0.50     -8206.4253   2.0000                                         
     2  0  0.50      -976.1748   2.0000                                         
     2  1  1.50      -839.0571   6.0000                                         
     3  0  0.50      -105.9991   2.0000                                         
     3  1  1.50       -66.4603   6.0000                                         
     3  2  2.50        -4.6458   9.0000                                         
     4  0  0.50        -4.4926   1.0000                                         
     4  1  1.50        -4.0817   0.0000                                         
     4  3  2.50        -1.3606   0.0000                                         
   Description                                                                  
     l       E           TYP  RCUT    TYP  RCUT                                 
     2     -4.6457903     23  2.300                                             
     2     -6.0063729     23  2.300                                             
     0     -4.4925590     23  2.300                                             
     0      5.0102601     23  2.300                                             
     1     -2.7211652     23  2.300                                             
     1     16.5183231     23  2.300                                             
  local pseudopotential read in
  partial core-charges read in
  partial kinetic energy density read in
  atomic valenz-charges read in
  non local Contribution for L=           2  read in
    real space projection operators read in
  non local Contribution for L=           2  read in
    real space projection operators read in
  non local Contribution for L=           0  read in
    real space projection operators read in
  non local Contribution for L=           0  read in
    real space projection operators read in
  non local Contribution for L=           1  read in
    real space projection operators read in
  non local Contribution for L=           1  read in
    real space projection operators read in
    PAW grid and wavefunctions read in
 
   number of l-projection  operators is LMAX  =           6
   number of lm-projection operators is LMMAX =          18
 
 POTCAR:    PAW_PBE O 08Apr2002                   
   VRHFIN =O: s2p4                                                              
   LEXCH  = PE                                                                  
   EATOM  =   432.3788 eV,   31.7789 Ry                                         
                                                                                
   TITEL  = PAW_PBE O 08Apr2002                                                 
   LULTRA =        F    use ultrasoft PP ?                                      
   IUNSCR =        1    unscreen: 0-lin 1-nonlin 2-no                           
   RPACOR =    1.200    partial core radius                                     
   POMASS =   16.000; ZVAL   =    6.000    mass and valenz                      
   RCORE  =    1.520    outmost cutoff radius                                   
   RWIGS  =    1.550; RWIGS  =    0.820    wigner-seitz radius (au A)           
   ENMAX  =  400.000; ENMIN  =  300.000 eV                                      
   ICORE  =        2    local potential                                         
   LCOR   =        T    correct aug charges                                     
   LPAW   =        T    paw PP                                                  
   EAUG   =  605.392                                                            
   DEXC   =    0.000                                                            
   RMAX   =    1.553    core radius for proj-oper                               
   RAUG   =    1.300    factor for augmentation sphere                          
   RDEP   =    1.550    radius for radial grids                                 
   RDEPT  =    1.329    core radius for aug-charge                              
                                                                                
   Atomic configuration                                                         
    4 entries                                                                   
     n  l   j            E        occ.                                          
     1  0  0.50      -514.6923   2.0000                                         
     2  0  0.50       -23.9615   2.0000                                         
     2  1  0.50        -9.0305   4.0000                                         
     3  2  1.50        -9.5241   0.0000                                         
   Description                                                                  
     l       E           TYP  RCUT    TYP  RCUT                                 
     0    -23.9615318     23  1.200                                             
     0     -9.5240782     23  1.200                                             
     1     -9.0304911     23  1.520                                             
     1      8.1634956     23  1.520                                             
     2     -9.5240782      7  1.500                                             
  local pseudopotential read in
  partial core-charges read in
  partial kinetic energy density read in
  kinetic energy density of atom read in
  atomic valenz-charges read in
  non local Contribution for L=           0  read in
    real space projection operators read in
  non local Contribution for L=           0  read in
    real space projection operators read in
  non local Contribution for L=           1  read in
    real space projection operators read in
  non local Contribution for L=           1  read in
    real space projection operators read in
    PAW grid and wavefunctions read in
 
   number of l-projection  operators is LMAX  =           4
   number of lm-projection operators is LMMAX =           8
 
 POTCAR:    PAW_PBE H 15Jun2001                   
   VRHFIN =H: ultrasoft test                                                    
   LEXCH  = PE                                                                  
   EATOM  =    12.4884 eV,    0.9179 Ry                                         
                                                                                
   TITEL  = PAW_PBE H 15Jun2001                                                 
   LULTRA =        F    use ultrasoft PP ?                                      
   IUNSCR =        0    unscreen: 0-lin 1-nonlin 2-no                           
   RPACOR =    0.000    partial core radius                                     
   POMASS =    1.000; ZVAL   =    1.000    mass and valenz                      
   RCORE  =    1.100    outmost cutoff radius                                   
   RWIGS  =    0.700; RWIGS  =    0.370    wigner-seitz radius (au A)           
   ENMAX  =  250.000; ENMIN  =  200.000 eV                                      
   RCLOC  =    0.701    cutoff for local pot                                    
   LCOR   =        T    correct aug charges                                     
   LPAW   =        T    paw PP                                                  
   EAUG   =  400.000                                                            
   RMAX   =    1.123    core radius for proj-oper                               
   RAUG   =    1.200    factor for augmentation sphere                          
   RDEP   =    1.112    radius for radial grids                                 
   RDEPT  =    0.926    core radius for aug-charge                              
                                                                                
   Atomic configuration                                                         
    2 entries                                                                   
     n  l   j            E        occ.                                          
     1  0  0.50        -6.4927   1.0000                                         
     2  1  0.50        -3.4015   0.0000                                         
   Description                                                                  
     l       E           TYP  RCUT    TYP  RCUT                                 
     0     -6.4927494     23  1.100                                             
     0      6.8029130     23  1.100                                             
     1     -4.0817478     23  1.100                                             
  local pseudopotential read in
  atomic valenz-charges read in
  non local Contribution for L=           0  read in
    real space projection operators read in
  non local Contribution for L=           0  read in
    real space projection operators read in
  non local Contribution for L=           1  read in
    real space projection operators read in
    PAW grid and wavefunctions read in
 
   number of l-projection  operators is LMAX  =           3
   number of lm-projection operators is LMMAX =           5
 
 Optimization of the real space projectors (new method)

 maximal supplied QI-value         = 16.25
 optimisation between [QCUT,QGAM] = [ 11.54, 23.24] = [ 37.28,151.24] Ry 
 Optimized for a Real-space Cutoff    1.53 Angstroem

   l    n(q)    QCUT    max X(q) W(low)/X(q) W(high)/X(q)  e(spline) 
   2     10    11.539    80.901    0.11E-03    0.14E-03    0.21E-06
   2     10    11.539    75.754    0.11E-03    0.14E-03    0.22E-06
   0     11    11.539    58.752    0.52E-04    0.18E-04    0.33E-06
   0     11    11.539    30.679    0.44E-04    0.16E-04    0.30E-06
   1     10    11.539    17.977    0.53E-04    0.29E-04    0.13E-06
   1     10    11.539    13.559    0.44E-04    0.25E-04    0.11E-06
 Optimization of the real space projectors (new method)

 maximal supplied QI-value         = 16.25
 optimisation between [QCUT,QGAM] = [ 11.54, 23.24] = [ 37.28,151.24] Ry 
 Optimized for a Real-space Cutoff    1.45 Angstroem

   l    n(q)    QCUT    max X(q) W(low)/X(q) W(high)/X(q)  e(spline) 
   2      9    11.539    60.317    0.19E-03    0.47E-04    0.16E-06
   2      9    11.539    55.921    0.19E-03    0.48E-04    0.16E-06
   0     10    11.539    51.690    0.80E-04    0.50E-04    0.24E-06
   0     10    11.539    30.015    0.73E-04    0.45E-04    0.22E-06
   1     10    11.539    18.849    0.87E-04    0.16E-03    0.71E-07
   1     10    11.539    14.624    0.73E-04    0.13E-03    0.64E-07
 Optimization of the real space projectors (new method)

 maximal supplied QI-value         = 24.76
 optimisation between [QCUT,QGAM] = [ 11.64, 23.27] = [ 37.91,151.63] Ry 
 Optimized for a Real-space Cutoff    1.14 Angstroem

   l    n(q)    QCUT    max X(q) W(low)/X(q) W(high)/X(q)  e(spline) 
   0      8    11.635    20.381    0.10E-03    0.33E-03    0.24E-06
   0      8    11.635    15.268    0.11E-03    0.35E-03    0.26E-06
   1      7    11.635     5.964    0.24E-03    0.31E-03    0.30E-06
   1      7    11.635     5.382    0.22E-03    0.25E-03    0.26E-06
 Optimization of the real space projectors (new method)

 maximal supplied QI-value         = 34.20
 optimisation between [QCUT,QGAM] = [ 11.63, 23.26] = [ 37.87,151.49] Ry 
 Optimized for a Real-space Cutoff    1.21 Angstroem

   l    n(q)    QCUT    max X(q) W(low)/X(q) W(high)/X(q)  e(spline) 
   0      8    11.629    19.460    0.17E-03    0.34E-03    0.21E-06
   0      8    11.629    12.209    0.16E-03    0.33E-03    0.21E-06
   1      8    11.629     4.655    0.18E-03    0.16E-03    0.26E-06
  PAW_PBE Fe 06Sep2000                  :
 energy of atom  1       EATOM= -594.3153
 kinetic energy error for atom=    0.0026 (will be added to EATOM!!)
  PAW_PBE Ni 02Aug2007                  :
 energy of atom  2       EATOM=-1077.6739
 kinetic energy error for atom=    0.0030 (will be added to EATOM!!)
  PAW_PBE O 08Apr2002                   :
 energy of atom  3       EATOM= -432.3788
 kinetic energy error for atom=    0.0208 (will be added to EATOM!!)
  PAW_PBE H 15Jun2001                   :
 energy of atom  4       EATOM=  -12.4884
 kinetic energy error for atom=    0.0014 (will be added to EATOM!!)
 
 
 POSCAR: POSCAR                                  
  positions in direct lattice
  velocities in cartesian coordinates
 exchange correlation table for  LEXCH =        8
   RHO(1)=    0.500       N(1)  =     2000
   RHO(2)=  100.500       N(2)  =     4000

 VTST: version 3.2, (02/03/18)

 CHAIN: initializing optimizer
 
 OPT: Using VASP Dynamics algorithm
 CHAIN: Read ICHAIN            0
 
 POSCAR: POSCAR                                  
  positions in direct lattice
  velocities in cartesian coordinates
 


--------------------------------------------------------------------------------------------------------


 ion  position               nearest neighbor table
   1  0.002  0.999  0.097-   9 2.45  29 2.50  49 2.51  64 2.51  44 2.53   7 2.53  51 2.54  38 2.55
                             5 2.60
   2  0.996  0.995  0.380-  11 2.46   6 2.48  57 2.48  48 2.49  39 2.50   8 2.50  30 2.52  52 2.54
                            50 2.58
   3  0.499  0.996  0.096-   5 2.47  62 2.50  34 2.52  31 2.52  49 2.53  45 2.55  55 2.55  12 2.56
                            53 2.58
   4  0.500  0.991  0.378-  15 2.39  63 2.43  13 2.44  35 2.50  32 2.51   6 2.52  50 2.55  54 2.57
                            56 2.58
   5  0.743  0.996  0.094-   3 2.47  34 2.47  62 2.52  38 2.53  55 2.54  64 2.58  14 2.58  51 2.59
                             1 2.60
   6  0.753  0.998  0.386-  68 1.82  39 2.47   2 2.48  56 2.52   4 2.52  35 2.54  47 2.54  15 2.55
                            52 2.57  57 2.58
   7  0.249  0.253  0.097-  22 2.43   9 2.44  51 2.49  18 2.52  20 2.53   1 2.53  53 2.54  10 2.55
                            49 2.58
   8  0.245  0.241  0.382-  66 1.79  11 2.46  52 2.46  19 2.50   2 2.50  59 2.51  26 2.52  54 2.53
                            50 2.55  21 2.56
   9  0.089  0.161  0.191-  10 2.41   7 2.44   1 2.45  44 2.47  11 2.49  57 2.52  51 2.52  59 2.53
                            64 2.54  22 2.55  58 2.62  14 2.68
  10  0.330  0.166  0.195-  26 2.41   9 2.41  11 2.44  22 2.48  45 2.48  44 2.49  13 2.50   7 2.55
                            12 2.57  49 2.58  53 2.59  25 2.59
  11  0.165  0.078  0.287-  10 2.44  44 2.45   8 2.46   2 2.46   9 2.49  13 2.49  48 2.51  57 2.52
                            46 2.53  26 2.54  59 2.56  50 2.58
  12  0.583  0.166  0.194-  14 2.45  15 2.49  27 2.50  13 2.52  62 2.52  45 2.54  28 2.54  55 2.55
                             3 2.56  10 2.57  53 2.58  25 2.58
  13  0.413  0.081  0.290-   4 2.44  11 2.49  10 2.50  45 2.51  50 2.51  26 2.52  12 2.52  54 2.53
                            46 2.54  15 2.57  63 2.57  28 2.58
  14  0.827  0.167  0.193-  60 2.44  12 2.45  15 2.47  57 2.50  62 2.51  55 2.51  27 2.53  58 2.56
                            51 2.56   5 2.58  64 2.59   9 2.68
  15  0.666  0.081  0.289-   4 2.39  14 2.47  12 2.49  56 2.51  62 2.51  60 2.52  47 2.52  57 2.54
                             6 2.55  28 2.55  63 2.56  13 2.57
  16  0.003  0.511  0.095-  31 2.44  29 2.45  23 2.48  33 2.51  58 2.57  18 2.58  27 2.59  55 2.60
                            51 2.63
  17  0.004  0.502  0.375-  37 2.38  60 2.42  43 2.49  32 2.49  30 2.52  19 2.53  52 2.55  56 2.56
                            24 2.56
  18  0.256  0.506  0.097-  36 2.40  31 2.45  34 2.47  22 2.47  20 2.48   7 2.52  58 2.53  51 2.58
                            16 2.58
  19  0.247  0.489  0.385-  67 1.86  52 2.41  59 2.50   8 2.50  21 2.53  17 2.53  61 2.57  37 2.59
                            35 2.59  32 2.60
  20  0.500  0.503  0.098-  22 2.41  40 2.43  34 2.48  18 2.48  38 2.50  25 2.53   7 2.53  53 2.54
                            23 2.58
  21  0.498  0.494  0.375-  26 2.38  61 2.42  42 2.43  19 2.53  35 2.53  54 2.55  24 2.55   8 2.56
                            39 2.57
  22  0.339  0.416  0.189-  20 2.41   7 2.43  40 2.46  18 2.47  25 2.48  26 2.48  10 2.48  61 2.51
                            36 2.53   9 2.55  59 2.56  58 2.60
  23  0.757  0.508  0.096-  29 2.40  41 2.46  16 2.48  27 2.48  38 2.48  25 2.56  55 2.57  20 2.58
                            53 2.60
  24  0.749  0.494  0.390-  65 1.88  69 1.94  28 2.51  56 2.52  21 2.55  54 2.56  17 2.56  30 2.59
                            39 2.61  42 2.63  43 2.75
  25  0.586  0.422  0.194-  42 2.42  40 2.45  41 2.46  27 2.46  26 2.47  22 2.48  20 2.53  28 2.55
                            23 2.56  53 2.58  12 2.58  10 2.59
  26  0.413  0.331  0.286-  21 2.38  10 2.41  25 2.47  22 2.48  59 2.50   8 2.52  13 2.52  61 2.52
                            11 2.54  28 2.57  42 2.59  54 2.66
  27  0.827  0.417  0.192-  43 2.41  41 2.45  25 2.46  23 2.48  60 2.50  12 2.50  55 2.51  28 2.53
                            14 2.53  58 2.59  16 2.59  33 2.60
  28  0.669  0.335  0.292-  56 2.49  60 2.49  42 2.50  24 2.51  27 2.53  12 2.54  43 2.54  15 2.55
                            25 2.55  26 2.57  13 2.58  54 2.58
  29  0.992  0.747  0.096-  23 2.40  16 2.45  38 2.48  41 2.50   1 2.50  33 2.54  44 2.56  49 2.57
                            31 2.63
  30  0.003  0.750  0.384-  65 1.85  46 2.44  50 2.46  32 2.50   2 2.52  17 2.52  48 2.55  24 2.59
                            39 2.59  43 2.61
  31  0.251  0.746  0.097-  16 2.44  36 2.44  18 2.45  33 2.49  34 2.52   3 2.52  45 2.55  49 2.56
                            29 2.63
  32  0.249  0.747  0.387-  67 1.87  50 2.47  17 2.49  30 2.50   4 2.51  46 2.53  35 2.57  63 2.59
                            19 2.60  37 2.61
  33  0.086  0.671  0.192-  43 2.40  45 2.48  44 2.48  46 2.49  31 2.49  37 2.49  16 2.51  36 2.52
                            41 2.52  29 2.54  58 2.55  27 2.60
  34  0.502  0.749  0.098-  18 2.47   5 2.47  40 2.48  36 2.48  20 2.48  62 2.49  38 2.49  31 2.52
                             3 2.52
  35  0.503  0.746  0.385-  67 1.87  39 2.45  47 2.49   4 2.50  21 2.53   6 2.54  61 2.55  32 2.57
                            63 2.58  19 2.59
  36  0.330  0.661  0.190-  18 2.40  31 2.44  34 2.48  37 2.48  58 2.49  61 2.49  63 2.50  33 2.52
                            22 2.53  40 2.53  62 2.56  45 2.62
  37  0.168  0.581  0.286-  17 2.38  58 2.45  36 2.48  63 2.49  61 2.49  33 2.49  59 2.51  46 2.51
                            60 2.55  43 2.55  19 2.59  32 2.61
  38  0.748  0.749  0.094-  29 2.48  23 2.48  34 2.49  20 2.50   5 2.53  40 2.54  64 2.55   1 2.55
                            41 2.58
  39  0.747  0.751  0.387-  65 1.84  35 2.45   6 2.47   2 2.50  47 2.52  21 2.57  42 2.58  30 2.59
                            24 2.61  48 2.61
  40  0.580  0.661  0.192-  20 2.43  25 2.45  22 2.46  61 2.47  34 2.48  42 2.52  36 2.53  38 2.54
                            41 2.54  47 2.54  62 2.56  64 2.57
  41  0.832  0.662  0.193-  43 2.35  42 2.43  48 2.45  27 2.45  25 2.46  23 2.46  29 2.50  33 2.52
                            40 2.54  64 2.54  44 2.57  38 2.58
  42  0.673  0.584  0.287-  25 2.42  21 2.43  41 2.43  43 2.47  48 2.47  28 2.50  40 2.52  47 2.54
                            39 2.58  26 2.59  61 2.60  24 2.63
  43  0.919  0.587  0.281-  41 2.35  33 2.40  27 2.41  46 2.46  42 2.47  48 2.47  17 2.49  28 2.54
                            37 2.55  60 2.56  30 2.61  24 2.75
  44  0.086  0.916  0.194-  45 2.43  11 2.45  48 2.45   9 2.47  33 2.48  10 2.49  46 2.52   1 2.53
                            49 2.53  64 2.54  29 2.56  41 2.57
  45  0.327  0.919  0.193-  44 2.43  33 2.48  10 2.48  49 2.49  13 2.51  46 2.51  63 2.52  12 2.54
                            31 2.55   3 2.55  62 2.59  36 2.62
  46  0.164  0.827  0.290-  30 2.44  43 2.46  33 2.49  50 2.51  45 2.51  37 2.51  44 2.52  63 2.52
                            48 2.52  32 2.53  11 2.53  13 2.54
  47  0.665  0.831  0.289-  35 2.49  39 2.52  62 2.52  15 2.52  64 2.52  63 2.53  61 2.53  42 2.54
                            48 2.54   6 2.54  40 2.54  57 2.56
  48  0.916  0.830  0.285-  44 2.45  41 2.45  64 2.46  42 2.47  43 2.47   2 2.49  11 2.51  46 2.52
                            47 2.54  30 2.55  57 2.56  39 2.61
  49  0.249  0.998  0.096-  45 2.49   1 2.51  44 2.53   3 2.53  53 2.55  31 2.56  29 2.57  10 2.58
                             7 2.58
  50  0.248  0.991  0.386-  66 1.87  30 2.46  32 2.47  46 2.51  13 2.51  54 2.52   8 2.55   4 2.55
                             2 2.58  11 2.58
  51  0.001  0.250  0.097-   7 2.49  58 2.51   9 2.52   1 2.54  55 2.55  14 2.56  18 2.58   5 2.59
                            16 2.63
  52  0.007  0.251  0.381-  68 1.89  19 2.41  59 2.46   8 2.46  57 2.50  56 2.54   2 2.54  60 2.54
                            17 2.55   6 2.57
  53  0.499  0.252  0.095-  55 2.53   7 2.54  20 2.54  49 2.55   3 2.58  25 2.58  12 2.58  10 2.59
                            23 2.60
  54  0.495  0.242  0.389-  66 1.92  69 2.03  50 2.52   8 2.53  13 2.53  21 2.55  24 2.56   4 2.57
                            28 2.58  56 2.59  26 2.66
  55  0.749  0.251  0.096-  14 2.51  27 2.51  53 2.53   5 2.54  51 2.55   3 2.55  12 2.55  23 2.57
                            16 2.60
  56  0.754  0.248  0.385-  69 1.94  68 1.96  28 2.49  15 2.51   6 2.52  24 2.52  60 2.52  52 2.54
                            17 2.56   4 2.58  54 2.59
  57  0.919  0.084  0.286-   2 2.48  64 2.49  14 2.50  52 2.50  59 2.51  11 2.52   9 2.52  60 2.53
                            15 2.54  48 2.56  47 2.56   6 2.58
  58  0.083  0.417  0.192-  37 2.45  60 2.48  36 2.49  59 2.50  51 2.51  18 2.53  33 2.55  14 2.56
                            16 2.57  27 2.59  22 2.60   9 2.62
  59  0.167  0.332  0.287-  52 2.46  58 2.50  19 2.50  26 2.50  61 2.51  37 2.51   8 2.51  57 2.51
                             9 2.53  22 2.56  11 2.56  60 2.56
  60  0.913  0.331  0.286-  17 2.42  14 2.44  58 2.48  28 2.49  27 2.50  15 2.52  56 2.52  57 2.53
                            52 2.54  37 2.55  43 2.56  59 2.56
  61  0.414  0.581  0.286-  21 2.42  40 2.47  36 2.49  37 2.49  63 2.50  22 2.51  59 2.51  26 2.52
                            47 2.53  35 2.55  19 2.57  42 2.60
  62  0.582  0.915  0.192-  63 2.48  34 2.49   3 2.50  14 2.51  15 2.51   5 2.52  47 2.52  12 2.52
                            64 2.55  36 2.56  40 2.56  45 2.59
  63  0.413  0.827  0.286-   4 2.43  62 2.48  37 2.49  61 2.50  36 2.50  45 2.52  46 2.52  47 2.53
                            15 2.56  13 2.57  35 2.58  32 2.59
  64  0.834  0.915  0.192-  48 2.46  57 2.49   1 2.51  47 2.52   9 2.54  44 2.54  41 2.54  38 2.55
                            62 2.55  40 2.57   5 2.58  14 2.59
  65  0.838  0.673  0.438-  39 1.84  30 1.85  24 1.88
  66  0.313  0.161  0.439-   8 1.79  50 1.87  54 1.92
  67  0.334  0.657  0.438-  19 1.86  35 1.87  32 1.87
  68  0.845  0.160  0.440-   6 1.82  52 1.89  56 1.96
  69  0.676  0.326  0.449-  70 1.54  24 1.94  56 1.94  54 2.03
  70  0.721  0.319  0.518-  71 0.99  69 1.54
  71  0.770  0.257  0.510-  70 0.99
 

IMPORTANT INFORMATION: All symmetrisations will be switched off!
NOSYMM: (Re-)initialisation of all symmetry stuff for point group C_1.

 
 

Automatic generation of k-mesh.
 generate k-points for:    3    3    1
Space group operators:
 irot       det(A)        alpha          n_x          n_y          n_z        tau_x        tau_y        tau_z
    1     1.000000     0.000000     1.000000     0.000000     0.000000     0.000000     0.000000     0.000000
 
 Subroutine IBZKPT returns following result:
 ===========================================
 
 Found      5 irreducible k-points:
 
 Following reciprocal coordinates:
            Coordinates               Weight
  0.000000  0.000000  0.000000      1.000000
  0.333333  0.000000  0.000000      2.000000
  0.000000  0.333333  0.000000      2.000000
  0.333333  0.333333  0.000000      2.000000
 -0.333333  0.333333  0.000000      2.000000
 
 Following cartesian coordinates:
            Coordinates               Weight
  0.000000  0.000000  0.000000      1.000000
  0.032965  0.019033  0.000000      2.000000
  0.000000  0.038065  0.000000      2.000000
  0.032965  0.057098  0.000000      2.000000
 -0.032965  0.019033  0.000000      2.000000
 
 TETIRR: Found     24 inequivalent tetrahedra from       54


--------------------------------------------------------------------------------------------------------




 Dimension of arrays:
   k-points           NKPTS =      5   k-points in BZ     NKDIM =      5   number of bands    NBANDS=    384
   number of dos      NEDOS =    301   number of ions     NIONS =     71
   non local maximal  LDIM  =      6   non local SUM 2l+1 LMDIM =     18
   total plane-waves  NPLWV = ******
   max r-space proj   IRMAX =   8269   max aug-charges    IRDMAX=  19568
   dimension x,y,z NGX =    80 NGY =   80 NGZ =  160
   dimension x,y,z NGXF=   160 NGYF=  160 NGZF=  320
   support grid    NGXF=   160 NGYF=  160 NGZF=  320
   ions per type =              48  16   6   1
   NGX,Y,Z   is equivalent  to a cutoff of  13.15, 13.15, 12.51 a.u.
   NGXF,Y,Z  is equivalent  to a cutoff of  26.31, 26.31, 25.02 a.u.

 SYSTEM =  SQS-NiFe                                
 POSCAR =  POSCAR                                  

 Startparameter for this run:
   NWRITE =      2    write-flag & timer
   PREC   = accura    normal or accurate (medium, high low for compatibility)
   ISTART =      1    job   : 0-new  1-cont  2-samecut
   ICHARG =      1    charge: 1-file 2-atom 10-const
   ISPIN  =      2    spin polarized calculation?
   LNONCOLLINEAR =      F non collinear calculations
   LSORBIT =      F    spin-orbit coupling
   INIWAV =      1    electr: 0-lowe 1-rand  2-diag
   LASPH  =      F    aspherical Exc in radial PAW
   METAGGA=      F    non-selfconsistent MetaGGA calc.

 Electronic Relaxation 1
   ENCUT  =  520.0 eV  38.22 Ry    6.18 a.u.  18.80 18.80 39.54*2*pi/ulx,y,z
   ENINI  =  520.0     initial cutoff
   ENAUG  =  605.4 eV  augmentation charge cutoff
   NELM   =    200;   NELMIN=  2; NELMDL=  0     # of ELM steps 
   EDIFF  = 0.1E-05   stopping-criterion for ELM
   LREAL  =      T    real-space projection
   NLSPLINE    = F    spline interpolate recip. space projectors
   LCOMPAT=      F    compatible to vasp.4.4
   GGA_COMPAT  = T    GGA compatible to vasp.4.4-vasp.4.6
   LMAXPAW     = -100 max onsite density
   LMAXMIX     =    2 max onsite mixed and CHGCAR
   VOSKOWN=      0    Vosko Wilk Nusair interpolation
   ROPT   =   -0.00025  -0.00025  -0.00025  -0.00025
 Ionic relaxation
   EDIFFG = -.2E-01   stopping-criterion for IOM
   NSW    =      0    number of steps for IOM
   NBLOCK =      1;   KBLOCK =      1    inner block; outer block 
   IBRION =     -1    ionic relax: 0-MD 1-quasi-New 2-CG
   NFREE  =      0    steps in history (QN), initial steepest desc. (CG)
   ISIF   =      2    stress and relaxation
   IWAVPR =     10    prediction:  0-non 1-charg 2-wave 3-comb
   ISYM   =      0    0-nonsym 1-usesym 2-fastsym
   LCORR  =      T    Harris-Foulkes like correction to forces

   POTIM  = 0.5000    time-step for ionic-motion
   TEIN   =    0.0    initial temperature
   TEBEG  =    0.0;   TEEND  =   0.0 temperature during run
   SMASS  =  -3.00    Nose mass-parameter (am)
   estimated Nose-frequenzy (Omega)   =  0.10E-29 period in steps =****** mass=  -0.234E-26a.u.
   SCALEE = 1.0000    scale energy and forces
   NPACO  =    256;   APACO  = 16.0  distance and # of slots for P.C.
   PSTRESS=    0.0 pullay stress

  Mass of Ions in am
   POMASS =  55.85 58.69 16.00  1.00
  Ionic Valenz
   ZVAL   =   8.00 10.00  6.00  1.00
  Atomic Wigner-Seitz radii
   RWIGS  =  -1.00 -1.00 -1.00 -1.00
  virtual crystal weights 
   VCA    =   1.00  1.00  1.00  1.00
   NELECT =     581.0000    total number of electrons
   NUPDOWN=      -1.0000    fix difference up-down

 DOS related values:
   EMIN   =  10.00;   EMAX   =-10.00  energy-range for DOS
   EFERMI =   0.00
   ISMEAR =    -5;   SIGMA  =   0.20  broadening in eV -4-tet -1-fermi 0-gaus

 Electronic relaxation 2 (details)
   IALGO  =     68    algorithm
   LDIAG  =      T    sub-space diagonalisation (order eigenvalues)
   LSUBROT=      F    optimize rotation matrix (better conditioning)
   TURBO    =      0    0=normal 1=particle mesh
   IRESTART =      0    0=no restart 2=restart with 2 vectors
   NREBOOT  =      0    no. of reboots
   NMIN     =      0    reboot dimension
   EREF     =   0.00    reference energy to select bands
   IMIX   =      4    mixing-type and parameters
     AMIX     =   0.40;   BMIX     =  1.00
     AMIX_MAG =   1.60;   BMIX_MAG =  1.00
     AMIN     =   0.10
     WC   =   100.;   INIMIX=   1;  MIXPRE=   1;  MAXMIX= -45

 Intra band minimization:
   WEIMIN = 0.0000     energy-eigenvalue tresh-hold
   EBREAK =  0.65E-09  absolut break condition
   DEPER  =   0.30     relativ break condition  

   TIME   =   0.40     timestep for ELM

  volume/ion in A,a.u.               =      26.52       178.98
  Fermi-wavevector in a.u.,A,eV,Ry     =   1.106227  2.090466 16.649976  1.223739
  Thomas-Fermi vector in A             =   2.242725
 
 Write flags
   LWAVE        =      T    write WAVECAR
   LDOWNSAMPLE  =      F    k-point downsampling of WAVECAR
   LCHARG       =      T    write CHGCAR
   LVTOT        =      F    write LOCPOT, total local potential
   LVHAR        =      F    write LOCPOT, Hartree potential only
   LELF         =      F    write electronic localiz. function (ELF)
   LORBIT       =     11    0 simple, 1 ext, 2 COOP (PROOUT), +10 PAW based schemes


 Dipole corrections
   LMONO  =      F    monopole corrections only (constant potential shift)
   LDIPOL =      T    correct potential (dipole corrections)
   IDIPOL =      3    1-x, 2-y, 3-z, 4-all directions 
   EPSILON=  1.0000000 bulk dielectric constant

 Exchange correlation treatment:
   GGA     =    --    GGA type
   LEXCH   =     8    internal setting for exchange type
   VOSKOWN=      0    Vosko Wilk Nusair interpolation
   LHFCALC =     F    Hartree Fock is set to
   LHFONE  =     F    Hartree Fock one center treatment
   AEXX    =    0.0000 exact exchange contribution

 Linear response parameters
   LEPSILON=     F    determine dielectric tensor
   LRPA    =     F    only Hartree local field effects (RPA)
   LNABLA  =     F    use nabla operator in PAW spheres
   LVEL    =     F    velocity operator in full k-point grid
   LINTERFAST=   F  fast interpolation
   KINTER  =     0    interpolate to denser k-point grid
   CSHIFT  =0.1000    complex shift for real part using Kramers Kronig
   OMEGAMAX=  -1.0    maximum frequency
   DEG_THRESHOLD= 0.2000000E-02 threshold for treating states as degnerate
   RTIME   =   -0.100 relaxation time in fs
  (WPLASMAI=    0.000 imaginary part of plasma frequency in eV, 0.658/RTIME)
   DFIELD  = 0.0000000 0.0000000 0.0000000 field for delta impulse in time
 
 Orbital magnetization related:
   ORBITALMAG=     F  switch on orbital magnetization
   LCHIMAG   =     F  perturbation theory with respect to B field
   DQ        =  0.001000  dq finite difference perturbation B field
   LLRAUG    =     F  two centre corrections for induced B field



--------------------------------------------------------------------------------------------------------


 Static calculation
 charge density and potential will be updated during run
 spin polarized calculation
 RMM-DIIS sequential band-by-band and
  variant of blocked Davidson during initial phase
 perform sub-space diagonalisation
    before iterative eigenvector-optimisation
 modified Broyden-mixing scheme, WC =      100.0
 initial mixing is a Kerker type mixing with AMIX =  0.4000 and BMIX =      1.0000
 Hartree-type preconditioning will be used
 using additional bands           93
 real space projection scheme for non local part
 use partial core corrections
 calculate Harris-corrections to forces 
   (improved forces if not selfconsistent)
 use gradient corrections 
 use of overlap-Matrix (Vanderbilt PP)
 Fermi weights with tetrahedron method with Bloechl corrections


--------------------------------------------------------------------------------------------------------


  energy-cutoff  :      520.00
  volume of cell :     1883.07
      direct lattice vectors                 reciprocal lattice vectors
    10.111630000  0.000000000  0.000000000     0.098896024  0.057097646  0.000000000
    -5.055815000  8.756928450  0.000000000     0.000000000  0.114195292  0.000000000
     0.000000000  0.000000000 21.266430000     0.000000000  0.000000000  0.047022467

  length of vectors
    10.111630000 10.111629997 21.266430000     0.114195292  0.114195292  0.047022467


 
 old parameters found on file WAVECAR:
  energy-cutoff  :      520.00
  volume of cell :     1883.07
      direct lattice vectors                 reciprocal lattice vectors
    10.111630000  0.000000000  0.000000000     0.098896024  0.057097646  0.000000000
    -5.055815000  8.756928450  0.000000000     0.000000000  0.114195292  0.000000000
     0.000000000  0.000000000 21.266430000     0.000000000  0.000000000  0.047022467

  length of vectors

 
 k-points in units of 2pi/SCALE and weight: read from INCAR                         
   0.00000000  0.00000000  0.00000000       0.111
   0.03296534  0.01903255  0.00000000       0.222
   0.00000000  0.03806510  0.00000000       0.222
   0.03296534  0.05709765  0.00000000       0.222
  -0.03296534  0.01903255  0.00000000       0.222
 
 k-points in reciprocal lattice and weights: read from INCAR                         
   0.00000000  0.00000000  0.00000000       0.111
   0.33333333  0.00000000  0.00000000       0.222
   0.00000000  0.33333333  0.00000000       0.222
   0.33333333  0.33333333  0.00000000       0.222
  -0.33333333  0.33333333  0.00000000       0.222
 
 position of ions in fractional coordinates (direct lattice) 
   0.00194700  0.99920000  0.09682900
   0.99614495  0.99532530  0.38029916
   0.49880600  0.99647600  0.09614500
   0.50049910  0.99109162  0.37823114
   0.74316000  0.99645900  0.09443100
   0.75301378  0.99824685  0.38635471
   0.24913600  0.25322600  0.09681000
   0.24491720  0.24092205  0.38186232
   0.08873200  0.16149400  0.19059200
   0.32962600  0.16609800  0.19506300
   0.16468759  0.07798057  0.28749756
   0.58333000  0.16550300  0.19443700
   0.41292331  0.08131548  0.29005616
   0.82651500  0.16651000  0.19326300
   0.66636286  0.08082327  0.28885810
   0.00320800  0.51090900  0.09451300
   0.00387156  0.50206501  0.37518435
   0.25586900  0.50577700  0.09734600
   0.24678854  0.48889632  0.38476130
   0.49960200  0.50304900  0.09754100
   0.49827504  0.49352985  0.37515455
   0.33859900  0.41583700  0.18939300
   0.75679100  0.50804300  0.09630900
   0.74863783  0.49375289  0.38974999
   0.58633600  0.42229400  0.19423600
   0.41335449  0.33077913  0.28575539
   0.82677100  0.41676200  0.19199500
   0.66928455  0.33457987  0.29151211
   0.99180600  0.74702800  0.09571300
   0.00349582  0.75023316  0.38373584
   0.25104600  0.74563900  0.09703600
   0.24902815  0.74708717  0.38727692
   0.08604600  0.67086900  0.19220200
   0.50153700  0.74905700  0.09752900
   0.50269755  0.74557761  0.38461713
   0.33005900  0.66135600  0.19018600
   0.16786823  0.58079140  0.28566676
   0.74777500  0.74863100  0.09404500
   0.74730851  0.75097858  0.38657458
   0.58008200  0.66096300  0.19152700
   0.83213700  0.66199500  0.19303500
   0.67317161  0.58357229  0.28673204
   0.91876186  0.58655522  0.28135105
   0.08603600  0.91635500  0.19371200
   0.32743000  0.91932200  0.19293700
   0.16395993  0.82701058  0.28981480
   0.66534569  0.83075362  0.28864119
   0.91612541  0.82980447  0.28529347
   0.24916500  0.99813100  0.09559800
   0.24845256  0.99066231  0.38643502
   0.00129700  0.24974200  0.09658600
   0.00681609  0.25146908  0.38149150
   0.49933100  0.25162700  0.09537300
   0.49481706  0.24172359  0.38905664
   0.74944200  0.25071300  0.09573100
   0.75411416  0.24772538  0.38456180
   0.91889871  0.08430853  0.28608805
   0.08260800  0.41708000  0.19225300
   0.16720235  0.33233182  0.28667401
   0.91336815  0.33121784  0.28562834
   0.41439960  0.58085110  0.28559073
   0.58190700  0.91526900  0.19241300
   0.41322923  0.82726531  0.28586432
   0.83399900  0.91457100  0.19240400
   0.83829152  0.67332666  0.43776998
   0.31330800  0.16053318  0.43921923
   0.33383061  0.65743003  0.43813303
   0.84504919  0.15987796  0.43976397
   0.67568727  0.32622498  0.44906445
   0.72073568  0.31852627  0.51765061
   0.77006053  0.25655653  0.50981547
 
 position of ions in cartesian coordinates  (Angst):
  -5.03208300  8.74992291  2.05920715
   5.04046858  8.71599240  8.08760543
   0.00574341  8.72606903  2.04466091
   0.05008586  8.67891843  8.04362616
   2.47664659  8.72592017  2.00821025
   2.56724537  8.74157620  8.21638549
   1.23890724  2.21748196  2.05880309
   1.25845477  2.10973716  8.12084825
   0.08074137  1.41419140  4.05321143
   2.49329539  1.45450830  4.14829364
   1.27100459  0.68287029  6.11404671
   5.06166458  1.44929793  4.13498085
   3.76421170  0.71207385  6.16845910
   7.51557011  1.45811616  4.11001406
   6.32938713  0.70776363  6.14298065
  -2.55062328  4.47399356  2.00995410
  -2.49920000  4.39654739  7.97883176
   0.03013771  4.42905300  2.07020189
   0.02366506  4.28123013  8.18249918
   2.50846789  4.40516410  2.07434885
   2.54317718  4.32180558  7.97819805
   1.32139286  3.64145486  4.02771298
   5.08381916  4.44889620  2.04814861
   5.07362543  4.32375873  8.28859084
   3.79377235  3.69799834  4.13070630
   2.50732961  2.89660917  6.07699707
   6.25293088  3.64955501  4.08304823
   5.07598383  2.92989198  6.19942183
   6.25193994  6.54167075  2.03547381
  -3.75769161  6.56973806  8.16069139
  -1.23132858  6.52950737  2.06360930
  -1.25905403  6.54218892  8.23599760
  -2.52172424  5.87475183  4.08745038
   1.28426296  6.55943855  2.07409365
   1.31358916  6.52896980  8.17943317
  -0.00625910  5.79144717  4.04457726
  -1.23895244  5.08594875  6.07511208
   3.77628428  6.55570810  2.00000141
   3.75969834  6.57626571  8.22106117
   2.52386790  5.78800570  4.07309554
   5.06733720  5.79704285  4.10516532
   3.85642872  5.11030079  6.09776682
   6.32466528  5.13642211  5.98333242
  -3.76295716  8.02445517  4.11956269
  -1.33707095  8.05043698  4.10308120
  -2.52331032  7.24207244  6.16332618
   2.52759286  7.27485000  6.13836773
   5.06818330  7.26653840  6.06717354
  -2.52690139  8.74056175  2.03302818
  -2.49634499  8.67515898  8.21809324
  -1.24953457  2.18697282  2.05403941
  -1.20245933  2.20209675  8.11296235
   3.77687076  2.20347964  2.02824323
   3.78129721  2.11675621  8.27384576
   6.31052166  2.19547580  2.03585661
   6.37286966  2.16931346  8.17825660
   8.86531545  0.73828374  6.08407149
  -1.27337779  3.65233972  4.08853497
   0.01048011  2.91020601  6.09653286
   7.56106467  2.90045089  6.07429515
   1.25357973  5.08647149  6.07349537
   1.25659754  8.01494515  4.09193760
  -0.00407928  7.24430311  6.07931346
   3.80918753  8.00883281  4.09174620
   5.07227863  5.89627338  9.30980466
   2.35642852  1.40577755  9.34062498
   0.05172704  5.75706769  9.31752531
   7.73651134  1.40003983  9.35220976
   5.18296656  2.85672877  9.54999771
   5.67740266  2.78931174 11.00858053
   6.48946482  2.24664716 10.84195499
 


--------------------------------------------------------------------------------------------------------


 k-point  1 :   0.0000 0.0000 0.0000  plane waves:   50761
 k-point  2 :   0.3333 0.0000 0.0000  plane waves:   50732
 k-point  3 :   0.0000 0.3333 0.0000  plane waves:   50732
 k-point  4 :   0.3333 0.3333 0.0000  plane waves:   50727
 k-point  5 :  -0.3333 0.3333 0.0000  plane waves:   50732

 maximum and minimum number of plane-waves per node :      2133     2094

 maximum number of plane-waves:     50761
 maximum index in each direction: 
   IXMAX=   19   IYMAX=   18   IZMAX=   39
   IXMIN=  -19   IYMIN=  -19   IZMIN=  -39


 real space projection operators:
  total allocation   :      70262.41 KBytes
  max/ min on nodes  :       3503.99       2632.56


 parallel 3D FFT for wavefunctions:
    minimum data exchange during FFTs selected (reduces bandwidth)
 parallel 3D FFT for charge:
    minimum data exchange during FFTs selected (reduces bandwidth)


 total amount of memory used by VASP MPI-rank0   114357. kBytes
=======================================================================

   base      :      30000. kBytes
   nonlr-proj:      14267. kBytes
   fftplans  :       6403. kBytes
   grid      :      18928. kBytes
   one-center:         93. kBytes
   wavefun   :      44666. kBytes
 
     INWAV:  cpu time   10.7670: real time   10.9980
 Broyden mixing: mesh for mixing (old mesh)
   NGX = 37   NGY = 37   NGZ = 79
  (NGX  =160   NGY  =160   NGZ  =320)
  gives a total of 108151 points

 initial charge density was supplied:
 number of electron     581.0000099 magnetization      98.8438908
 keeping initial charge density in first step


--------------------------------------------------------------------------------------------------------


 Maximum index for non-local projection operator          763
 Maximum index for augmentation-charges         1126 (set IRDMAX)


--------------------------------------------------------------------------------------------------------


 First call to EWALD:  gamma=   0.144
 Maximum number of real-space cells 4x 4x 2
 Maximum number of reciprocal cells 2x 2x 4

    FEWALD:  cpu time    0.0045: real time    0.0308


--------------------------------------- Iteration      1(   1)  ---------------------------------------


    POTLOK:  cpu time    0.4240: real time    0.4974
    SETDIJ:  cpu time    0.0376: real time    0.0871
     EDDAV:  cpu time   39.4632: real time   39.6908
 BZINTS: Fermi energy: -0.274803;581.000000 electrons
         Band energy:***********;  BLOECHL correction: -0.007192
       DOS:  cpu time    0.0474: real time    0.0474
    CHARGE:  cpu time    0.9759: real time    0.9968
    MIXING:  cpu time    0.0088: real time    0.0088
    --------------------------------------------
      LOOP:  cpu time   40.9570: real time   41.3285

 eigenvalue-minimisations  :  8754
 total energy-change (2. order) :-0.5003752E+03  (-0.1306156E-01)
 number of electron     581.0000099 magnetization      98.7969140
 augmentation part      301.8724266 magnetization      79.9896744

 DIPCOR: dipole corrections for dipol
 direction  3 min pos   254,
 dipolmoment           0.000000      0.000000      0.333485 electrons x Angstroem
 Tr[quadrupol]    -10098.894283

 energy correction for charged system         0.000000 eV
 dipol+quadrupol energy correction           -0.005344 eV
 added-field ion interaction         14.586004 eV  (added to PSCEN)


 Broyden mixing:
  rms(total) = 0.96937E-01    rms(broyden)= 0.96798E-01
  rms(prec ) = 0.10136E+00
  weight for this iteration     100.00

 Free energy of the ion-electron system (eV)
  ---------------------------------------------------
  alpha Z        PSCENC =      1589.42234051
  Ewald energy   TEWEN  =    174617.10601979
  -Hartree energ DENC   =   -222588.62266821
  -exchange      EXHF   =         0.00000000
  -V(xc)+E(xc)   XCENC  =       862.99002298
  PAW double counting   =     54989.39836900   -56534.49505778
  entropy T*S    EENTRO =         0.00000000
  eigenvalues    EBANDS =     -1812.55249882
  atomic energy  EATOM  =     48376.37827422
  Solvation  Ediel_sol  =         0.00000000
  ---------------------------------------------------
  free energy    TOTEN  =      -500.37519830 eV

  energy without entropy =     -500.37519830  energy(sigma->0) =     -500.37519830


--------------------------------------------------------------------------------------------------------




--------------------------------------- Iteration      1(   2)  ---------------------------------------


    POTLOK:  cpu time    0.4222: real time    0.4337
    SETDIJ:  cpu time    0.0250: real time    0.0250
    EDDIAG:  cpu time    5.2181: real time    5.2222
  RMM-DIIS:  cpu time   18.8834: real time   18.8931
    ORTHCH:  cpu time    1.4493: real time    1.4497
 BZINTS: Fermi energy: -0.266107;581.000000 electrons
         Band energy:***********;  BLOECHL correction: -0.007616
       DOS:  cpu time    0.0482: real time    0.0483
    CHARGE:  cpu time    0.9717: real time    0.9723
    MIXING:  cpu time    0.0064: real time    0.0078
    --------------------------------------------
      LOOP:  cpu time   27.0243: real time   27.0522

 eigenvalue-minimisations  :  7775
 total energy-change (2. order) :-0.2735038E+00  (-0.1930738E-01)
 number of electron     581.0000099 magnetization      98.7893764
 augmentation part      301.8833086 magnetization      79.8386018

 DIPCOR: dipole corrections for dipol
 direction  3 min pos   253,
 dipolmoment           0.000000      0.000000      0.324972 electrons x Angstroem
 Tr[quadrupol]    -10098.873423

 energy correction for charged system         0.000000 eV
 dipol+quadrupol energy correction           -0.005074 eV
 added-field ion interaction         13.007855 eV  (added to PSCEN)


 Broyden mixing:
  rms(total) = 0.38315E+00    rms(broyden)= 0.38311E+00
  rms(prec ) = 0.43240E+00
  weight for this iteration     100.00

 eigenvalues of (default mixing * dielectric matrix)
  average eigenvalue GAMMA=   0.1859
  0.1859

 Free energy of the ion-electron system (eV)
  ---------------------------------------------------
  alpha Z        PSCENC =      1587.84446012
  Ewald energy   TEWEN  =    174617.10601979
  -Hartree energ DENC   =   -222589.23699303
  -exchange      EXHF   =         0.00000000
  -V(xc)+E(xc)   XCENC  =       862.89106264
  PAW double counting   =     54987.83377709   -56532.57658429
  entropy T*S    EENTRO =         0.00000000
  eigenvalues    EBANDS =     -1810.88871862
  atomic energy  EATOM  =     48376.37827422
  Solvation  Ediel_sol  =         0.00000000
  ---------------------------------------------------
  free energy    TOTEN  =      -500.64870208 eV

  energy without entropy =     -500.64870208  energy(sigma->0) =     -500.64870208


--------------------------------------------------------------------------------------------------------




--------------------------------------- Iteration      1(   3)  ---------------------------------------


    POTLOK:  cpu time    0.4206: real time    0.4321
    SETDIJ:  cpu time    0.0249: real time    0.0249
    EDDIAG:  cpu time    5.2283: real time    5.2299
  RMM-DIIS:  cpu time   18.7780: real time   18.7864
    ORTHCH:  cpu time    1.4418: real time    1.4420
 BZINTS: Fermi energy: -0.264900;581.000000 electrons
         Band energy:***********;  BLOECHL correction: -0.007783
       DOS:  cpu time    0.0459: real time    0.0459
    CHARGE:  cpu time    0.9740: real time    0.9742
    MIXING:  cpu time    0.0067: real time    0.0094
    --------------------------------------------
      LOOP:  cpu time   26.9201: real time   26.9448

 eigenvalue-minimisations  :  7741
 total energy-change (2. order) : 0.6926311E-01  (-0.6402780E-02)
 number of electron     581.0000099 magnetization      98.7711796
 augmentation part      301.8038418 magnetization      79.8753962

 DIPCOR: dipole corrections for dipol
 direction  3 min pos   252,
 dipolmoment           0.000000      0.000000      0.332464 electrons x Angstroem
 Tr[quadrupol]    -10098.817067

 energy correction for charged system         0.000000 eV
 dipol+quadrupol energy correction           -0.005311 eV
 added-field ion interaction         12.074125 eV  (added to PSCEN)


 Broyden mixing:
  rms(total) = 0.10585E+00    rms(broyden)= 0.10581E+00
  rms(prec ) = 0.12027E+00
  weight for this iteration     100.00

 eigenvalues of (default mixing * dielectric matrix)
  average eigenvalue GAMMA=   0.3145
  0.4997  0.1293

 Free energy of the ion-electron system (eV)
  ---------------------------------------------------
  alpha Z        PSCENC =      1586.91049342
  Ewald energy   TEWEN  =    174617.10601979
  -Hartree energ DENC   =   -222590.18605378
  -exchange      EXHF   =         0.00000000
  -V(xc)+E(xc)   XCENC  =       862.94313018
  PAW double counting   =     54989.53611260   -56534.50026258
  entropy T*S    EENTRO =         0.00000000
  eigenvalues    EBANDS =     -1808.76715282
  atomic energy  EATOM  =     48376.37827422
  Solvation  Ediel_sol  =         0.00000000
  ---------------------------------------------------
  free energy    TOTEN  =      -500.57943897 eV

  energy without entropy =     -500.57943897  energy(sigma->0) =     -500.57943897


--------------------------------------------------------------------------------------------------------




--------------------------------------- Iteration      1(   4)  ---------------------------------------


    POTLOK:  cpu time    0.4248: real time    0.4346
    SETDIJ:  cpu time    0.0250: real time    0.0250
    EDDIAG:  cpu time    5.2313: real time    5.2330
  RMM-DIIS:  cpu time   19.6080: real time   19.6203
    ORTHCH:  cpu time    1.4450: real time    1.4454
 BZINTS: Fermi energy: -0.252805;581.000000 electrons
         Band energy:***********;  BLOECHL correction: -0.006376
       DOS:  cpu time    0.0358: real time    0.0358
    CHARGE:  cpu time    0.9708: real time    0.9711
    MIXING:  cpu time    0.0066: real time    0.0079
    --------------------------------------------
      LOOP:  cpu time   27.7474: real time   27.7731

 eigenvalue-minimisations  :  8068
 total energy-change (2. order) :-0.2435369E-01  (-0.2515746E-02)
 number of electron     581.0000099 magnetization      98.7580737
 augmentation part      301.8212601 magnetization      79.8797432

 DIPCOR: dipole corrections for dipol
 direction  3 min pos   247,
 dipolmoment           0.000000      0.000000      0.312566 electrons x Angstroem
 Tr[quadrupol]    -10098.579233

 energy correction for charged system         0.000000 eV
 dipol+quadrupol energy correction           -0.004694 eV
 added-field ion interaction          5.552546 eV  (added to PSCEN)


 Broyden mixing:
  rms(total) = 0.23646E+00    rms(broyden)= 0.23645E+00
  rms(prec ) = 0.29316E+00
  weight for this iteration     100.00

 eigenvalues of (default mixing * dielectric matrix)
  average eigenvalue GAMMA=   0.2510
  0.5366  0.1402  0.0763

 Free energy of the ion-electron system (eV)
  ---------------------------------------------------
  alpha Z        PSCENC =      1580.38953135
  Ewald energy   TEWEN  =    174617.10601979
  -Hartree energ DENC   =   -222589.70329911
  -exchange      EXHF   =         0.00000000
  -V(xc)+E(xc)   XCENC  =       862.91160308
  PAW double counting   =     54988.47557672   -56533.34460479
  entropy T*S    EENTRO =         0.00000000
  eigenvalues    EBANDS =     -1802.81689393
  atomic energy  EATOM  =     48376.37827422
  Solvation  Ediel_sol  =         0.00000000
  ---------------------------------------------------
  free energy    TOTEN  =      -500.60379266 eV

  energy without entropy =     -500.60379266  energy(sigma->0) =     -500.60379266


--------------------------------------------------------------------------------------------------------




--------------------------------------- Iteration      1(   5)  ---------------------------------------


    POTLOK:  cpu time    0.4235: real time    0.4338
    SETDIJ:  cpu time    0.0250: real time    0.0250
    EDDIAG:  cpu time    5.2279: real time    5.2300
  RMM-DIIS:  cpu time   19.2514: real time   19.2630
    ORTHCH:  cpu time    1.4411: real time    1.4416
 BZINTS: Fermi energy: -0.250883;581.000000 electrons
         Band energy:***********;  BLOECHL correction: -0.007978
       DOS:  cpu time    0.0469: real time    0.0470
    CHARGE:  cpu time    0.9724: real time    0.9726
    MIXING:  cpu time    0.0067: real time    0.0067
    --------------------------------------------
      LOOP:  cpu time   27.3956: real time   27.4196

 eigenvalue-minimisations  :  7943
 total energy-change (2. order) : 0.1727326E-01  (-0.9103429E-03)
 number of electron     581.0000099 magnetization      98.7517644
 augmentation part      301.7998991 magnetization      79.8656383

 DIPCOR: dipole corrections for dipol
 direction  3 min pos   244,
 dipolmoment           0.000000      0.000000      0.344734 electrons x Angstroem
 Tr[quadrupol]    -10098.465390

 energy correction for charged system         0.000000 eV
 dipol+quadrupol energy correction           -0.005710 eV
 added-field ion interaction          2.286543 eV  (added to PSCEN)


 Broyden mixing:
  rms(total) = 0.11498E+00    rms(broyden)= 0.11496E+00
  rms(prec ) = 0.15796E+00
  weight for this iteration     100.00

 eigenvalues of (default mixing * dielectric matrix)
  average eigenvalue GAMMA=   0.2219
  0.5217  0.1755  0.1115  0.0789

 Free energy of the ion-electron system (eV)
  ---------------------------------------------------
  alpha Z        PSCENC =      1577.12251226
  Ewald energy   TEWEN  =    174617.10601979
  -Hartree energ DENC   =   -222589.74192627
  -exchange      EXHF   =         0.00000000
  -V(xc)+E(xc)   XCENC  =       862.87965012
  PAW double counting   =     54988.03494713   -56532.81317300
  entropy T*S    EENTRO =         0.00000000
  eigenvalues    EBANDS =     -1799.55282366
  atomic energy  EATOM  =     48376.37827422
  Solvation  Ediel_sol  =         0.00000000
  ---------------------------------------------------
  free energy    TOTEN  =      -500.58651940 eV

  energy without entropy =     -500.58651940  energy(sigma->0) =     -500.58651940


--------------------------------------------------------------------------------------------------------




--------------------------------------- Iteration      1(   6)  ---------------------------------------


    POTLOK:  cpu time    0.4243: real time    0.4365
    SETDIJ:  cpu time    0.0252: real time    0.0252
    EDDIAG:  cpu time    5.2285: real time    5.2306
  RMM-DIIS:  cpu time   19.5189: real time   19.5301
    ORTHCH:  cpu time    1.4338: real time    1.4343
 BZINTS: Fermi energy: -0.246924;581.000000 electrons
         Band energy:***********;  BLOECHL correction: -0.007244
       DOS:  cpu time    0.0482: real time    0.0482
    CHARGE:  cpu time    0.9718: real time    0.9721
    MIXING:  cpu time    0.0069: real time    0.0069
    --------------------------------------------
      LOOP:  cpu time   27.6568: real time   27.6837

 eigenvalue-minimisations  :  8072
 total energy-change (2. order) : 0.5928503E-02  (-0.3509939E-03)
 number of electron     581.0000099 magnetization      98.7322761
 augmentation part      301.8430309 magnetization      79.8209969

 DIPCOR: dipole corrections for dipol
 direction  3 min pos   243,
 dipolmoment           0.000000      0.000000      0.324409 electrons x Angstroem
 Tr[quadrupol]    -10098.403568

 energy correction for charged system         0.000000 eV
 dipol+quadrupol energy correction           -0.005057 eV
 added-field ion interaction          0.948002 eV  (added to PSCEN)


 Broyden mixing:
  rms(total) = 0.55106E-01    rms(broyden)= 0.55094E-01
  rms(prec ) = 0.72042E-01
  weight for this iteration     100.00

 eigenvalues of (default mixing * dielectric matrix)
  average eigenvalue GAMMA=   0.3049
  0.6184  0.6184  0.1391  0.0953  0.0535

 Free energy of the ion-electron system (eV)
  ---------------------------------------------------
  alpha Z        PSCENC =      1575.78462500
  Ewald energy   TEWEN  =    174617.10601979
  -Hartree energ DENC   =   -222589.03050654
  -exchange      EXHF   =         0.00000000
  -V(xc)+E(xc)   XCENC  =       862.85412460
  PAW double counting   =     54987.37075400   -56532.09038621
  entropy T*S    EENTRO =         0.00000000
  eigenvalues    EBANDS =     -1798.95349576
  atomic energy  EATOM  =     48376.37827422
  Solvation  Ediel_sol  =         0.00000000
  ---------------------------------------------------
  free energy    TOTEN  =      -500.58059090 eV

  energy without entropy =     -500.58059090  energy(sigma->0) =     -500.58059090


--------------------------------------------------------------------------------------------------------




--------------------------------------- Iteration      1(   7)  ---------------------------------------


    POTLOK:  cpu time    0.4215: real time    0.4333
    SETDIJ:  cpu time    0.0252: real time    0.0252
    EDDIAG:  cpu time    5.2271: real time    5.2289
  RMM-DIIS:  cpu time   19.3940: real time   19.4068
    ORTHCH:  cpu time    1.4332: real time    1.4337
 BZINTS: Fermi energy: -0.246100;581.000000 electrons
         Band energy:***********;  BLOECHL correction: -0.007560
       DOS:  cpu time    0.0442: real time    0.0443
    CHARGE:  cpu time    0.9789: real time    0.9792
    MIXING:  cpu time    0.0069: real time    0.0069
    --------------------------------------------
      LOOP:  cpu time   27.5311: real time   27.5582

 eigenvalue-minimisations  :  7952
 total energy-change (2. order) :-0.8205404E-03  (-0.4144421E-03)
 number of electron     581.0000099 magnetization      98.6925929
 augmentation part      301.8328239 magnetization      79.7729857

 DIPCOR: dipole corrections for dipol
 direction  3 min pos   242,
 dipolmoment           0.000000      0.000000      0.333211 electrons x Angstroem
 Tr[quadrupol]    -10098.365431

 energy correction for charged system         0.000000 eV
 dipol+quadrupol energy correction           -0.005335 eV
 added-field ion interaction         -0.262670 eV  (added to PSCEN)


 Broyden mixing:
  rms(total) = 0.80265E-01    rms(broyden)= 0.80262E-01
  rms(prec ) = 0.90024E-01
  weight for this iteration     100.00

 eigenvalues of (default mixing * dielectric matrix)
  average eigenvalue GAMMA=   0.3593
  0.8741  0.8741  0.1490  0.1218  0.0834  0.0535

 Free energy of the ion-electron system (eV)
  ---------------------------------------------------
  alpha Z        PSCENC =      1574.57367523
  Ewald energy   TEWEN  =    174617.10601979
  -Hartree energ DENC   =   -222589.07853694
  -exchange      EXHF   =         0.00000000
  -V(xc)+E(xc)   XCENC  =       862.83163831
  PAW double counting   =     54986.76179977   -56531.44189078
  entropy T*S    EENTRO =         0.00000000
  eigenvalues    EBANDS =     -1797.71239104
  atomic energy  EATOM  =     48376.37827422
  Solvation  Ediel_sol  =         0.00000000
  ---------------------------------------------------
  free energy    TOTEN  =      -500.58141144 eV

  energy without entropy =     -500.58141144  energy(sigma->0) =     -500.58141144


--------------------------------------------------------------------------------------------------------




--------------------------------------- Iteration      1(   8)  ---------------------------------------


    POTLOK:  cpu time    0.4240: real time    0.4352
    SETDIJ:  cpu time    0.0249: real time    0.0249
    EDDIAG:  cpu time    5.2318: real time    5.2334
  RMM-DIIS:  cpu time   19.2146: real time   19.2237
    ORTHCH:  cpu time    1.4366: real time    1.4369
 BZINTS: Fermi energy: -0.241251;581.000000 electrons
         Band energy:***********;  BLOECHL correction: -0.007285
       DOS:  cpu time    0.0475: real time    0.0475
    CHARGE:  cpu time    0.9801: real time    0.9804
    MIXING:  cpu time    0.0072: real time    0.0072
    --------------------------------------------
      LOOP:  cpu time   27.3673: real time   27.3891

 eigenvalue-minimisations  :  7888
 total energy-change (2. order) : 0.2810814E-02  (-0.2646652E-03)
 number of electron     581.0000099 magnetization      98.6760324
 augmentation part      301.8372935 magnetization      79.7604800

 DIPCOR: dipole corrections for dipol
 direction  3 min pos   240,
 dipolmoment           0.000000      0.000000      0.330116 electrons x Angstroem
 Tr[quadrupol]    -10098.282730

 energy correction for charged system         0.000000 eV
 dipol+quadrupol energy correction           -0.005236 eV
 added-field ion interaction         -2.710043 eV  (added to PSCEN)


 Broyden mixing:
  rms(total) = 0.51802E-01    rms(broyden)= 0.51799E-01
  rms(prec ) = 0.57564E-01
  weight for this iteration     100.00

 eigenvalues of (default mixing * dielectric matrix)
  average eigenvalue GAMMA=   0.3500
  1.0466  0.8094  0.1956  0.1424  0.1151  0.0877  0.0532

 Free energy of the ion-electron system (eV)
  ---------------------------------------------------
  alpha Z        PSCENC =      1572.12640056
  Ewald energy   TEWEN  =    174617.10601979
  -Hartree energ DENC   =   -222589.15282248
  -exchange      EXHF   =         0.00000000
  -V(xc)+E(xc)   XCENC  =       862.78944599
  PAW double counting   =     54985.58128341   -56530.23568654
  entropy T*S    EENTRO =         0.00000000
  eigenvalues    EBANDS =     -1795.17151558
  atomic energy  EATOM  =     48376.37827422
  Solvation  Ediel_sol  =         0.00000000
  ---------------------------------------------------
  free energy    TOTEN  =      -500.57860063 eV

  energy without entropy =     -500.57860063  energy(sigma->0) =     -500.57860063


--------------------------------------------------------------------------------------------------------




--------------------------------------- Iteration      1(   9)  ---------------------------------------


    POTLOK:  cpu time    0.4235: real time    0.4352
    SETDIJ:  cpu time    0.0249: real time    0.0249
    EDDIAG:  cpu time    5.2208: real time    5.2225
  RMM-DIIS:  cpu time   19.2869: real time   19.2955
    ORTHCH:  cpu time    1.4334: real time    1.4338
 BZINTS: Fermi energy: -0.239167;581.000000 electrons
         Band energy:***********;  BLOECHL correction: -0.007374
       DOS:  cpu time    0.0465: real time    0.0464
    CHARGE:  cpu time    0.9766: real time    0.9768
    MIXING:  cpu time    0.0072: real time    0.0073
    --------------------------------------------
      LOOP:  cpu time   27.4191: real time   27.4425

 eigenvalue-minimisations  :  7916
 total energy-change (2. order) : 0.1255226E-02  (-0.1543345E-03)
 number of electron     581.0000099 magnetization      98.6329606
 augmentation part      301.8348884 magnetization      79.7149048

 DIPCOR: dipole corrections for dipol
 direction  3 min pos   239,
 dipolmoment           0.000000      0.000000      0.330260 electrons x Angstroem
 Tr[quadrupol]    -10098.236982

 energy correction for charged system         0.000000 eV
 dipol+quadrupol energy correction           -0.005241 eV
 added-field ion interaction         -3.936668 eV  (added to PSCEN)


 Broyden mixing:
  rms(total) = 0.30126E-01    rms(broyden)= 0.30124E-01
  rms(prec ) = 0.32778E-01
  weight for this iteration     100.00

 eigenvalues of (default mixing * dielectric matrix)
  average eigenvalue GAMMA=   0.4124
  1.0558  1.0558  0.6608  0.1554  0.1323  0.0533  0.0837  0.1024

 Free energy of the ion-electron system (eV)
  ---------------------------------------------------
  alpha Z        PSCENC =      1570.89977130
  Ewald energy   TEWEN  =    174617.10601979
  -Hartree energ DENC   =   -222589.15980954
  -exchange      EXHF   =         0.00000000
  -V(xc)+E(xc)   XCENC  =       862.78455884
  PAW double counting   =     54985.18658387   -56529.84321657
  entropy T*S    EENTRO =         0.00000000
  eigenvalues    EBANDS =     -1793.92952732
  atomic energy  EATOM  =     48376.37827422
  Solvation  Ediel_sol  =         0.00000000
  ---------------------------------------------------
  free energy    TOTEN  =      -500.57734540 eV

  energy without entropy =     -500.57734540  energy(sigma->0) =     -500.57734540


--------------------------------------------------------------------------------------------------------




--------------------------------------- Iteration      1(  10)  ---------------------------------------


    POTLOK:  cpu time    0.4329: real time    0.4338
    SETDIJ:  cpu time    0.0249: real time    0.0249
    EDDIAG:  cpu time    5.2331: real time    5.2345
  RMM-DIIS:  cpu time   19.6579: real time   19.6671
    ORTHCH:  cpu time    1.4351: real time    1.4354
 BZINTS: Fermi energy: -0.237636;581.000000 electrons
         Band energy:***********;  BLOECHL correction: -0.007543
       DOS:  cpu time    0.0431: real time    0.0432
    CHARGE:  cpu time    0.9760: real time    0.9763
    MIXING:  cpu time    0.0074: real time    0.0074
    --------------------------------------------
      LOOP:  cpu time   27.8113: real time   27.8226

 eigenvalue-minimisations  :  8069
 total energy-change (2. order) : 0.1324129E-03  (-0.1488931E-03)
 number of electron     581.0000099 magnetization      98.5962438
 augmentation part      301.8359554 magnetization      79.6775365

 DIPCOR: dipole corrections for dipol
 direction  3 min pos   238,
 dipolmoment           0.000000      0.000000      0.331983 electrons x Angstroem
 Tr[quadrupol]    -10098.185242

 energy correction for charged system         0.000000 eV
 dipol+quadrupol energy correction           -0.005296 eV
 added-field ion interaction         -5.189038 eV  (added to PSCEN)


 Broyden mixing:
  rms(total) = 0.50280E-01    rms(broyden)= 0.50279E-01
  rms(prec ) = 0.55858E-01
  weight for this iteration     100.00

 eigenvalues of (default mixing * dielectric matrix)
  average eigenvalue GAMMA=   0.4210
  1.2941  1.1198  0.7158  0.1517  0.1508  0.0533  0.1177  0.0857  0.0998

 Free energy of the ion-electron system (eV)
  ---------------------------------------------------
  alpha Z        PSCENC =      1569.64734579
  Ewald energy   TEWEN  =    174617.10601979
  -Hartree energ DENC   =   -222589.07467877
  -exchange      EXHF   =         0.00000000
  -V(xc)+E(xc)   XCENC  =       862.78281771
  PAW double counting   =     54984.13507220   -56528.77754030
  entropy T*S    EENTRO =         0.00000000
  eigenvalues    EBANDS =     -1792.77452363
  atomic energy  EATOM  =     48376.37827422
  Solvation  Ediel_sol  =         0.00000000
  ---------------------------------------------------
  free energy    TOTEN  =      -500.57721299 eV

  energy without entropy =     -500.57721299  energy(sigma->0) =     -500.57721299


--------------------------------------------------------------------------------------------------------




--------------------------------------- Iteration      1(  11)  ---------------------------------------


    POTLOK:  cpu time    0.4231: real time    0.4314
    SETDIJ:  cpu time    0.0249: real time    0.0249
    EDDIAG:  cpu time    5.2285: real time    5.2309
  RMM-DIIS:  cpu time   19.2552: real time   19.2685
    ORTHCH:  cpu time    1.4332: real time    1.4337
 BZINTS: Fermi energy: -0.237326;581.000000 electrons
         Band energy:***********;  BLOECHL correction: -0.007279
       DOS:  cpu time    0.0464: real time    0.0464
    CHARGE:  cpu time    0.9768: real time    0.9771
    MIXING:  cpu time    0.0077: real time    0.0077
    --------------------------------------------
      LOOP:  cpu time   27.3950: real time   27.4206

 eigenvalue-minimisations  :  7889
 total energy-change (2. order) : 0.1999033E-02  (-0.1003168E-03)
 number of electron     581.0000099 magnetization      98.5713467
 augmentation part      301.8396449 magnetization      79.6646227

 DIPCOR: dipole corrections for dipol
 direction  3 min pos   238,
 dipolmoment           0.000000      0.000000      0.331114 electrons x Angstroem
 Tr[quadrupol]    -10098.192062

 energy correction for charged system         0.000000 eV
 dipol+quadrupol energy correction           -0.005268 eV
 added-field ion interaction         -5.175459 eV  (added to PSCEN)


 Broyden mixing:
  rms(total) = 0.23211E-01    rms(broyden)= 0.23209E-01
  rms(prec ) = 0.25344E-01
  weight for this iteration     100.00

 eigenvalues of (default mixing * dielectric matrix)
  average eigenvalue GAMMA=   0.4443
  1.5390  1.1488  0.7277  0.3741  0.1636  0.0533  0.1349  0.1191  0.0840  0.0989

 Free energy of the ion-electron system (eV)
  ---------------------------------------------------
  alpha Z        PSCENC =      1569.66095237
  Ewald energy   TEWEN  =    174617.10601979
  -Hartree energ DENC   =   -222589.22272684
  -exchange      EXHF   =         0.00000000
  -V(xc)+E(xc)   XCENC  =       862.77733296
  PAW double counting   =     54983.18834328   -56527.79797850
  entropy T*S    EENTRO =         0.00000000
  eigenvalues    EBANDS =     -1792.66543125
  atomic energy  EATOM  =     48376.37827422
  Solvation  Ediel_sol  =         0.00000000
  ---------------------------------------------------
  free energy    TOTEN  =      -500.57521396 eV

  energy without entropy =     -500.57521396  energy(sigma->0) =     -500.57521396


--------------------------------------------------------------------------------------------------------




--------------------------------------- Iteration      1(  12)  ---------------------------------------


    POTLOK:  cpu time    0.4239: real time    0.4362
    SETDIJ:  cpu time    0.0250: real time    0.0250
    EDDIAG:  cpu time    5.2056: real time    5.2077
  RMM-DIIS:  cpu time   19.3740: real time   19.3856
    ORTHCH:  cpu time    1.4234: real time    1.4237
 BZINTS: Fermi energy: -0.237256;581.000000 electrons
         Band energy:***********;  BLOECHL correction: -0.007315
       DOS:  cpu time    0.0477: real time    0.0477
    CHARGE:  cpu time    0.9777: real time    0.9780
    MIXING:  cpu time    0.0080: real time    0.0080
    --------------------------------------------
      LOOP:  cpu time   27.4852: real time   27.5118

 eigenvalue-minimisations  :  7952
 total energy-change (2. order) : 0.7203676E-04  (-0.6761684E-04)
 number of electron     581.0000099 magnetization      98.5305838
 augmentation part      301.8392204 magnetization      79.6220866

 DIPCOR: dipole corrections for dipol
 direction  3 min pos   238,
 dipolmoment           0.000000      0.000000      0.330904 electrons x Angstroem
 Tr[quadrupol]    -10098.190849

 energy correction for charged system         0.000000 eV
 dipol+quadrupol energy correction           -0.005261 eV
 added-field ion interaction         -5.172183 eV  (added to PSCEN)


 Broyden mixing:
  rms(total) = 0.30403E-01    rms(broyden)= 0.30402E-01
  rms(prec ) = 0.32955E-01
  weight for this iteration     100.00

 eigenvalues of (default mixing * dielectric matrix)
  average eigenvalue GAMMA=   0.4768
  1.9828  1.0931  0.7907  0.6087  0.1625  0.0533  0.1420  0.1283  0.0849  0.1021
  0.0967

 Free energy of the ion-electron system (eV)
  ---------------------------------------------------
  alpha Z        PSCENC =      1569.66423554
  Ewald energy   TEWEN  =    174617.10601979
  -Hartree energ DENC   =   -222589.22286676
  -exchange      EXHF   =         0.00000000
  -V(xc)+E(xc)   XCENC  =       862.77806025
  PAW double counting   =     54982.83837913   -56527.45213649
  entropy T*S    EENTRO =         0.00000000
  eigenvalues    EBANDS =     -1792.66510760
  atomic energy  EATOM  =     48376.37827422
  Solvation  Ediel_sol  =         0.00000000
  ---------------------------------------------------
  free energy    TOTEN  =      -500.57514192 eV

  energy without entropy =     -500.57514192  energy(sigma->0) =     -500.57514192


--------------------------------------------------------------------------------------------------------




--------------------------------------- Iteration      1(  13)  ---------------------------------------


    POTLOK:  cpu time    0.4231: real time    0.4341
    SETDIJ:  cpu time    0.0249: real time    0.0250
    EDDIAG:  cpu time    5.2044: real time    5.2065
  RMM-DIIS:  cpu time   19.4733: real time   19.4843
    ORTHCH:  cpu time    1.4240: real time    1.4245
[...]
   0.118E+02 -.271E+02 0.892E+03   -.117E+02 0.275E+02 -.892E+03   -.267E-01 -.136E+00 0.262E+00   -.411E-03 0.158E-03 0.336E-02
   0.345E+02 -.680E+02 -.492E+03   -.342E+02 0.682E+02 0.492E+03   -.283E+00 -.220E+00 0.917E-01   -.959E-04 -.162E-03 0.352E-02
   -.532E+01 0.832E+01 0.215E+04   0.540E+01 -.820E+01 -.215E+04   0.391E-01 0.117E+00 -.203E+01   -.472E-03 -.163E-03 0.110E-02
   0.918E+02 -.396E+02 -.184E+04   -.939E+02 0.408E+02 0.183E+04   0.212E+01 -.122E+01 0.260E+01   -.359E-04 -.392E-03 0.129E-02
   -.365E+02 0.502E+01 0.852E+03   0.367E+02 -.435E+01 -.852E+03   0.150E+00 -.877E-01 0.532E-01   -.242E-03 0.998E-04 0.380E-02
   0.257E+01 -.697E+01 0.838E+03   -.252E+01 0.737E+01 -.839E+03   0.123E+00 -.210E+00 0.174E+00   -.121E-04 -.451E-03 0.383E-02
   -.108E+02 -.155E+02 -.498E+03   0.106E+02 0.157E+02 0.499E+03   0.112E+00 -.186E+00 -.242E+00   -.218E-03 -.350E-03 0.392E-02
   0.272E+02 -.386E+02 -.433E+03   -.274E+02 0.388E+02 0.432E+03   0.139E+00 -.186E+00 0.538E+00   0.183E-03 -.461E-03 0.388E-02
   -.119E+02 0.322E+02 0.812E+03   0.121E+02 -.330E+02 -.812E+03   -.259E+00 0.179E+00 -.352E+00   0.636E-03 0.149E-03 0.374E-02
   0.805E+01 -.324E+00 0.823E+03   -.743E+01 0.312E+00 -.823E+03   0.163E-01 0.307E-02 -.141E+00   0.257E-03 -.102E-03 0.345E-02
   0.201E+02 0.832E+01 -.515E+03   -.199E+02 -.785E+01 0.516E+03   -.187E+00 -.457E+00 -.561E+00   0.380E-03 0.415E-04 0.361E-02
   -.348E+02 0.360E+02 -.550E+03   0.348E+02 -.361E+02 0.551E+03   -.198E-01 0.610E-01 -.922E+00   -.173E-03 0.223E-03 0.352E-02
   -.134E+02 0.395E+02 -.498E+03   0.133E+02 -.394E+02 0.498E+03   0.125E+00 -.343E-01 -.250E+00   -.255E-03 0.188E-03 0.391E-02
   0.800E+01 0.294E+02 0.265E+04   -.812E+01 -.297E+02 -.265E+04   0.962E-01 0.450E+00 -.546E+00   0.905E-03 0.447E-03 0.115E-02
   0.231E+02 0.193E+03 -.230E+04   -.228E+02 -.196E+03 0.230E+04   -.323E+00 0.303E+01 0.116E+01   -.125E-03 0.172E-03 0.137E-02
   -.115E+02 0.416E+01 0.267E+04   0.118E+02 -.417E+01 -.267E+04   -.528E+00 0.526E-01 -.865E+00   -.565E-03 0.528E-03 0.159E-02
   -.161E+03 -.622E+02 -.230E+04   0.163E+03 0.635E+02 0.230E+04   -.222E+01 -.135E+01 0.319E+00   -.318E-03 0.986E-04 0.141E-02
   0.132E+02 -.291E+02 0.263E+04   -.133E+02 0.293E+02 -.263E+04   0.897E-01 -.255E+00 -.128E+01   0.151E-03 -.332E-03 0.118E-02
   0.467E+02 -.273E+02 -.218E+04   -.474E+02 0.273E+02 0.218E+04   0.672E+00 -.501E-02 0.271E+01   0.166E-03 0.514E-03 0.138E-02
   0.112E+02 -.164E+02 0.266E+04   -.113E+02 0.165E+02 -.265E+04   0.524E-01 -.545E-01 -.140E+01   -.371E-03 -.125E-04 0.156E-02
   0.782E+01 0.214E+02 -.210E+04   -.749E+01 -.216E+02 0.210E+04   -.329E+00 0.189E+00 0.245E+01   0.322E-03 0.356E-03 0.158E-02
   -.193E+02 0.100E+03 -.579E+03   0.192E+02 -.101E+03 0.578E+03   0.852E-01 0.400E+00 0.665E+00   -.350E-03 0.712E-03 0.470E-02
   0.116E+02 -.365E+02 0.111E+04   -.118E+02 0.362E+02 -.111E+04   0.291E-01 0.136E+00 -.317E+00   -.475E-03 0.306E-03 0.456E-02
   -.794E+02 -.107E+02 -.582E+03   0.794E+02 0.104E+02 0.583E+03   -.108E-01 0.327E+00 -.704E+00   -.370E-03 -.631E-03 0.515E-02
   0.614E+02 -.572E+02 -.532E+03   -.615E+02 0.571E+02 0.532E+03   0.108E+00 0.162E+00 0.470E+00   0.116E-03 -.624E-03 0.487E-02
   -.584E+02 -.227E+02 -.605E+03   0.585E+02 0.230E+02 0.604E+03   -.105E+00 -.316E+00 0.492E+00   0.140E-03 0.540E-04 0.475E-02
   0.218E+02 0.989E+01 0.106E+04   -.217E+02 -.996E+01 -.106E+04   0.103E+00 0.867E-02 -.273E+00   -.145E-03 0.280E-03 0.469E-02
   0.352E+02 -.121E+02 -.608E+03   -.353E+02 0.122E+02 0.608E+03   0.118E+00 -.569E-01 0.486E+00   0.106E-04 0.161E-03 0.429E-02
   -.229E+02 0.496E+02 0.108E+04   0.226E+02 -.497E+02 -.108E+04   0.931E-02 0.221E+00 -.210E-01   -.902E-03 0.492E-03 0.504E-02
   0.763E+01 -.729E+02 -.183E+04   -.698E+01 0.732E+02 0.186E+04   -.656E+00 -.305E+00 -.270E+02   0.300E-03 -.366E-03 -.600E-03
   0.857E+02 0.674E+01 -.191E+04   -.850E+02 -.720E+01 0.194E+04   -.725E+00 0.472E+00 -.284E+02   -.639E-04 0.391E-03 -.634E-03
   -.120E+02 -.976E+00 -.187E+04   0.125E+02 0.540E+00 0.189E+04   -.557E+00 0.419E+00 -.262E+02   -.105E-03 -.679E-05 -.703E-03
   -.833E+02 0.765E+02 -.189E+04   0.844E+02 -.741E+02 0.192E+04   -.111E+01 -.248E+01 -.252E+02   -.456E-04 0.404E-03 -.893E-03
   0.824E+02 -.440E+02 -.172E+04   -.931E+02 0.432E+02 0.172E+04   0.107E+02 0.803E+00 0.414E+01   0.234E-03 0.111E-03 -.889E-03
   -.853E+01 -.329E+02 -.178E+04   -.154E+02 0.528E+02 0.181E+04   0.239E+02 -.199E+02 -.305E+02   0.856E-05 0.323E-04 -.151E-02
   -.721E+02 0.444E+02 -.282E+03   0.786E+02 -.488E+02 0.281E+03   -.657E+01 0.437E+01 0.121E+01   -.320E-04 0.340E-04 -.232E-03
 -----------------------------------------------------------------------------------------------
   -.245E+02 0.165E+02 0.126E+03   0.398E-12 0.227E-12 -.210E-11   0.245E+02 -.165E+02 -.126E+03   0.119E-03 0.102E-02 0.162E+00
 
 
 POSITION                                       TOTAL-FORCE (eV/Angst)
 -----------------------------------------------------------------------------------
     -5.03208      8.74992      2.05921        -0.264233      0.157446     -0.069919
      5.04047      8.71599      8.08761         0.026529      0.040706      0.004254
      0.00574      8.72607      2.04466        -0.180468      0.456126      0.044796
      0.05009      8.67892      8.04363         0.052514     -0.019618      0.009222
      2.47665      8.72592      2.00821         0.317901      0.278884      0.179497
      2.56725      8.74158      8.21639         0.013137      0.028805     -0.002933
      1.23891      2.21748      2.05880         0.323701     -0.341240     -0.088315
      1.25845      2.10974      8.12085         0.009043      0.006640      0.014560
      0.08074      1.41419      4.05321        -0.920078      0.476937     -0.046509
      2.49330      1.45451      4.14829         0.401010      0.230208     -0.682483
      1.27100      0.68287      6.11405        -0.005762      0.025544      0.014314
      5.06166      1.44930      4.13498        -0.444756      0.208044     -0.411483
      3.76421      0.71207      6.16846         0.022446      0.008246     -0.008332
      7.51557      1.45812      4.11001         0.557233     -0.274897     -0.547887
      6.32939      0.70776      6.14298        -0.029138      0.016932     -0.028587
     -2.55062      4.47399      2.00995         0.235497     -0.808271      0.295253
     -2.49920      4.39655      7.97883         0.043801     -0.008991     -0.018428
      0.03014      4.42905      2.07020        -0.403147     -0.494917     -0.248989
      0.02367      4.28123      8.18250         0.034450     -0.029464      0.009496
      2.50847      4.40516      2.07435         0.252184     -0.340276     -0.043172
      2.54318      4.32181      7.97820        -0.021978      0.006591     -0.026587
      1.32139      3.64145      4.02771         0.013206     -0.344169      0.438291
      5.08382      4.44890      2.04815        -0.401996     -0.692124     -0.100550
      5.07363      4.32376      8.28859         0.030194      0.001398     -0.000780
      3.79377      3.69800      4.13071        -0.338949     -0.566681     -0.421625
      2.50733      2.89661      6.07700        -0.000238      0.013285     -0.008303
      6.25293      3.64956      4.08305         0.564491      0.191614     -0.032548
      5.07598      2.92989      6.19942        -0.034252      0.008589     -0.020174
      6.25194      6.54167      2.03547         0.307257      0.378208      0.275593
     -3.75769      6.56974      8.16069         0.046302      0.028229     -0.014410
     -1.23133      6.52951      2.06361        -0.185169      0.388651     -0.312745
     -1.25905      6.54219      8.23600        -0.016311      0.046328      0.008319
     -2.52172      5.87475      4.08745        -0.754453     -0.132626      0.285014
      1.28426      6.55944      2.07409         0.033263      0.225680     -0.266096
      1.31359      6.52897      8.17943         0.021296      0.022382     -0.008490
     -0.00626      5.79145      4.04458         0.085644      0.270336      0.389137
     -1.23895      5.08595      6.07511        -0.013138     -0.012912      0.032579
      3.77628      6.55571      2.00000         0.114554      0.241169      0.096350
      3.75970      6.57627      8.22106        -0.001891     -0.006523     -0.012333
      2.52387      5.78801      4.07310         0.400518      0.577257      0.195322
      5.06734      5.79704      4.10517         0.176324      0.177503      0.031968
      3.85643      5.11030      6.09777         0.001372     -0.016918     -0.007117
      6.32467      5.13642      5.98333         0.015589     -0.016661      0.051516
     -3.76296      8.02446      4.11956        -0.081359     -0.573587     -0.140393
     -1.33707      8.05044      4.10308         0.641194     -0.011182      0.094904
     -2.52331      7.24207      6.16333        -0.031570      0.001729      0.025812
      2.52759      7.27485      6.13837         0.034185      0.030515     -0.027707
      5.06818      7.26654      6.06717         0.015370      0.003907     -0.023915
     -2.52690      8.74056      2.03303        -0.021872      0.101412      0.394092
     -2.49634      8.67516      8.21809        -0.018702      0.003647     -0.006219
     -1.24953      2.18697      2.05404        -0.214580      0.042483      0.392346
     -1.20246      2.20210      8.11296         0.004775     -0.003719      0.017423
      3.77687      2.20348      2.02824         0.028268     -0.000561      0.666348
      3.78130      2.11676      8.27385         0.010367      0.006789     -0.011994
      6.31052      2.19548      2.03586        -0.035261      0.041624      0.236036
      6.37287      2.16931      8.17826         0.005495     -0.016259      0.019048
      8.86532      0.73828      6.08407         0.006060     -0.015274     -0.014521
     -1.27338      3.65234      4.08853        -0.137347     -0.163263     -0.362893
      0.01048      2.91021      6.09653         0.005390     -0.002267     -0.036283
      7.56106      2.90045      6.07430        -0.043771      0.000841     -0.024511
      1.25358      5.08647      6.07350         0.014891     -0.015593      0.002954
      1.25660      8.01495      4.09194         0.130238     -0.057345      0.067338
     -0.00408      7.24430      6.07931        -0.000258      0.025814      0.004407
      3.80919      8.00883      4.09175        -0.294220      0.108011     -0.168804
      5.07228      5.89627      9.30980        -0.004836      0.034058      0.023048
      2.35643      1.40578      9.34062        -0.008974      0.015611     -0.019192
      0.05173      5.75707      9.31753        -0.045352     -0.016808     -0.000046
      7.73651      1.40004      9.35221        -0.005466     -0.001943     -0.030789
      5.18297      2.85673      9.55000        -0.018212      0.012012     -0.017401
      5.67740      2.78931     11.00858        -0.008605      0.024033     -0.026465
      6.48946      2.24665     10.84195        -0.009347      0.019871      0.020696
 -----------------------------------------------------------------------------------
    total drift:                                0.002782     -0.009150     -0.004901


--------------------------------------------------------------------------------------------------------



  FREE ENERGIE OF THE ION-ELECTRON SYSTEM (eV)
  ---------------------------------------------------
  free  energy   TOTEN  =      -515.50423793 eV

  energy  without entropy=     -515.50423793  energy(sigma->0) =     -515.50423793
 


--------------------------------------------------------------------------------------------------------


    POTLOK:  cpu time    0.4445: real time    0.4447


--------------------------------------------------------------------------------------------------------


 stress matrix after NEB project (eV)
    -31.20727     -0.63187      0.48884
     -0.63187    -30.66501      1.83155
      0.48884      1.83155     -4.14405
  FORCES: max atom, RMS     0.056812    0.027081
  FORCE total and by dimension    0.228191    0.052514
  Stress total and by dimension   44.038561   31.207267
 writing wavefunctions
     LOOP+:  cpu time 1424.5775: real time 1450.3926
    4ORBIT:  cpu time    0.0000: real time    0.0000
 


 total charge     
 
# of ion       s       p       d       tot
------------------------------------------
    1        0.476   0.400   6.171   7.046
    2        0.465   0.402   6.199   7.066
    3        0.471   0.392   6.148   7.011
    4        0.476   0.405   6.200   7.081
    5        0.466   0.384   6.154   7.005
    6        0.489   0.541   6.230   7.261
    7        0.478   0.404   6.193   7.075
    8        0.503   0.552   6.275   7.329
    9        0.486   0.519   6.227   7.232
   10        0.503   0.553   6.222   7.278
   11        0.495   0.544   6.256   7.295
   12        0.481   0.510   6.220   7.211
   13        0.485   0.524   6.223   7.232
   14        0.475   0.490   6.187   7.152
   15        0.482   0.521   6.235   7.239
   16        0.474   0.393   6.161   7.027
   17        0.477   0.416   6.192   7.085
   18        0.491   0.425   6.213   7.129
   19        0.473   0.509   6.212   7.193
   20        0.494   0.427   6.227   7.148
   21        0.480   0.422   6.199   7.101
   22        0.506   0.564   6.233   7.302
   23        0.487   0.418   6.193   7.098
   24        0.441   0.545   6.243   7.229
   25        0.504   0.561   6.213   7.278
   26        0.495   0.544   6.232   7.271
   27        0.491   0.533   6.242   7.267
   28        0.476   0.521   6.207   7.204
   29        0.488   0.423   6.194   7.105
   30        0.482   0.531   6.240   7.253
   31        0.488   0.423   6.208   7.119
   32        0.469   0.507   6.216   7.192
   33        0.502   0.561   6.254   7.317
   34        0.494   0.449   6.206   7.149
   35        0.473   0.516   6.229   7.219
   36        0.495   0.537   6.243   7.274
   37        0.489   0.527   6.228   7.243
   38        0.479   0.418   6.183   7.080
   39        0.485   0.532   6.246   7.263
   40        0.493   0.534   6.252   7.279
   41        0.507   0.565   6.316   7.388
   42        0.497   0.545   6.262   7.304
   43        0.514   0.576   6.229   7.318
   44        0.502   0.560   6.238   7.300
   45        0.488   0.525   6.219   7.232
   46        0.497   0.555   6.246   7.298
   47        0.477   0.515   6.185   7.177
   48        0.495   0.542   6.257   7.294
   49        0.503   0.384   8.313   9.201
   50        0.512   0.517   8.333   9.362
   51        0.495   0.379   8.298   9.172
   52        0.503   0.513   8.329   9.345
   53        0.486   0.357   8.319   9.161
   54        0.453   0.499   8.348   9.300
   55        0.500   0.376   8.306   9.182
   56        0.469   0.556   8.348   9.372
   57        0.505   0.513   8.322   9.340
   58        0.504   0.505   8.324   9.334
   59        0.509   0.523   8.314   9.346
   60        0.516   0.524   8.326   9.366
   61        0.522   0.539   8.325   9.386
   62        0.517   0.528   8.314   9.359
   63        0.513   0.535   8.313   9.361
   64        0.510   0.514   8.309   9.332
   65        1.582   3.381   0.000   4.963
   66        1.584   3.344   0.000   4.928
   67        1.579   3.383   0.000   4.961
   68        1.578   3.355   0.000   4.933
   69        1.583   3.302   0.000   4.884
   70        1.596   3.341   0.000   4.937
   71        0.601   0.113   0.000   0.714
--------------------------------------------------
tot         41.452  51.738 431.698 524.888
 


 magnetization (x)
 
# of ion       s       p       d       tot
------------------------------------------
    1        0.003  -0.008   2.630   2.624
    2        0.003  -0.006   2.812   2.809
    3        0.000  -0.009   2.778   2.770
    4        0.002  -0.002   2.859   2.859
    5        0.002  -0.010   2.766   2.758
    6       -0.002  -0.012   2.404   2.390
    7        0.007  -0.003   2.446   2.450
    8        0.002  -0.011   2.153   2.144
    9        0.007  -0.013   2.300   2.294
   10       -0.029  -0.043  -1.884  -1.956
   11       -0.005  -0.021   2.093   2.067
   12       -0.002  -0.024   2.354   2.328
   13       -0.006  -0.031   2.465   2.427
   14        0.002  -0.017   2.677   2.662
   15       -0.009  -0.029   2.488   2.451
   16        0.006  -0.010   2.688   2.683
   17        0.005  -0.007   2.820   2.818
   18       -0.002  -0.021   2.497   2.474
   19        0.006  -0.003   2.550   2.554
   20       -0.002  -0.009   2.295   2.284
   21       -0.001  -0.012   2.832   2.820
   22       -0.032  -0.055  -1.836  -1.923
   23        0.001  -0.013   2.557   2.545
   24        0.003   0.009   2.326   2.337
   25       -0.033  -0.053  -1.983  -2.069
   26        0.006  -0.012   2.209   2.204
   27        0.006  -0.012   2.180   2.175
   28        0.003  -0.015   2.355   2.343
   29        0.006  -0.014   2.540   2.532
   30        0.007  -0.004   2.325   2.328
   31       -0.005  -0.019   2.519   2.495
   32        0.005  -0.006   2.520   2.519
   33       -0.030  -0.050  -1.545  -1.625
   34       -0.010  -0.038   2.574   2.526
   35        0.003  -0.011   2.470   2.463
   36       -0.002  -0.023   2.399   2.375
   37        0.001  -0.017   2.445   2.429
   38       -0.006  -0.027   2.604   2.571
   39       -0.002  -0.020   2.279   2.257
   40        0.001  -0.021   2.228   2.208
   41       -0.011  -0.031  -0.072  -0.113
   42       -0.005  -0.023   1.978   1.951
   43       -0.037  -0.065  -1.889  -1.990
   44       -0.029  -0.051  -1.723  -1.803
   45        0.006  -0.017   2.331   2.320
   46        0.002  -0.006   1.976   1.972
   47        0.001  -0.017   2.530   2.514
   48       -0.002  -0.024   2.055   2.029
   49       -0.026  -0.029   0.487   0.432
   50       -0.023  -0.024   0.528   0.482
   51       -0.032  -0.034   0.703   0.637
   52       -0.018  -0.020   0.593   0.556
   53       -0.021  -0.019   0.371   0.331
   54       -0.014  -0.018   0.530   0.498
   55       -0.028  -0.030   0.698   0.639
   56       -0.018  -0.023   0.558   0.517
   57       -0.026  -0.053   0.722   0.643
   58       -0.018  -0.041   0.554   0.495
   59       -0.013  -0.027   0.490   0.450
   60       -0.019  -0.034   0.602   0.549
   61       -0.024  -0.059   0.659   0.576
   62       -0.026  -0.072   0.721   0.623
   63       -0.032  -0.063   0.777   0.683
   64       -0.019  -0.051   0.614   0.544
   65        0.003   0.076   0.000   0.079
   66        0.002   0.053   0.000   0.055
   67        0.004   0.107   0.000   0.111
   68        0.003   0.090   0.000   0.093
   69        0.013   0.094   0.000   0.107
   70        0.001   0.022   0.000   0.022
   71        0.001   0.000   0.000   0.001
--------------------------------------------------
tot         -0.493  -1.089  98.987  97.405
 
 BZINTS: Fermi energy: -0.266515;581.000000 electrons
         Band energy:***********;  BLOECHL correction: -0.007126

 total amount of memory used by VASP MPI-rank0   114357. kBytes
=======================================================================

   base      :      30000. kBytes
   nonlr-proj:      14267. kBytes
   fftplans  :       6403. kBytes
   grid      :      18928. kBytes
   one-center:         93. kBytes
   wavefun   :      44666. kBytes
 
  
  
 General timing and accounting informations for this job:
 ========================================================
  
                  Total CPU time used (sec):     1591.961
                            User time (sec):     1408.053
                          System time (sec):      183.907
                         Elapsed time (sec):     1625.760
  
                   Maximum memory used (kb):      349992.
                   Average memory used (kb):           0.
  
                          Minor page faults:     25980696
                          Major page faults:           35
                 Voluntary context switches:         7344
