       N       E                     dE             d eps       ncg     rms          rms(c)
DAV:   1     0.458328178331E+04    0.45833E+04   -0.26223E+05 33120   0.159E+03
DAV:   2     0.687341799242E+02   -0.45145E+04   -0.42435E+04 33120   0.354E+02
DAV:   3    -0.364465474929E+03   -0.43320E+03   -0.37263E+03 34119   0.149E+02
DAV:   4    -0.382575891243E+03   -0.18110E+02   -0.17749E+02 35298   0.334E+01
DAV:   5    -0.382928207568E+03   -0.35232E+00   -0.35207E+00 38691   0.366E+00
RMM:   6    -0.382940242411E+03   -0.12035E-01   -0.12031E-01 34479   0.676E-01
RMM:   7    -0.382944030843E+03   -0.37884E-02   -0.37774E-02 50560   0.266E-01
RMM:   8    -0.382944109182E+03   -0.78339E-04   -0.87077E-04 45427   0.300E-02
RMM:   9    -0.382944130191E+03   -0.21009E-04   -0.20559E-04 36995   0.936E-03
RMM:  10    -0.382944132302E+03   -0.21106E-05   -0.17795E-05 23580   0.355E-03
RMM:  11    -0.382944132959E+03   -0.65769E-06   -0.61255E-06 21411   0.204E-03
   1 F= -.38294413E+03 E0= -.38294413E+03  d E =0.000000E+00  mag=    81.9189
