 vasp.5.4.4.18Apr17-6-g9f103f2a35 (build Sep 06 2021 19:49:22) complex          
  
 executed on             LinuxIFC date 2022.01.05  10:11:13
 running on   72 total cores
 distrk:  each k-point on   72 cores,    1 groups
 distr:  one band on NCORES_PER_BAND=  24 cores,    3 groups


--------------------------------------------------------------------------------------------------------


 INCAR:
 POTCAR:    PAW_PBE Ni 02Aug2007                  
 POTCAR:    PAW_PBE Fe 06Sep2000                  

 ----------------------------------------------------------------------------- 
|                                                                             |
|           W    W    AA    RRRRR   N    N  II  N    N   GGGG   !!!           |
|           W    W   A  A   R    R  NN   N  II  NN   N  G    G  !!!           |
|           W    W  A    A  R    R  N N  N  II  N N  N  G       !!!           |
|           W WW W  AAAAAA  RRRRR   N  N N  II  N  N N  G  GGG   !            |
|           WW  WW  A    A  R   R   N   NN  II  N   NN  G    G                |
|           W    W  A    A  R    R  N    N  II  N    N   GGGG   !!!           |
|                                                                             |
|      For optimal performance we recommend to set                            |
|        NCORE= 4 - approx SQRT( number of cores)                             |
|      NCORE specifies how many cores store one orbital (NPAR=cpu/NCORE).     |
|      This setting can  greatly improve the performance of VASP for DFT.     |
|      The default,   NCORE=1            might be grossly inefficient         |
|      on modern multi-core architectures or massively parallel machines.     |
|      Do your own testing !!!!                                               |
|      Unfortunately you need to use the default for GW and RPA calculations. |
|      (for HF NCORE is supported but not extensively tested yet)             |
|                                                                             |
 ----------------------------------------------------------------------------- 

 POTCAR:    PAW_PBE Ni 02Aug2007                  
   VRHFIN =Ni:                                                                  
   LEXCH  = PE                                                                  
   EATOM  =  1077.6739 eV,   79.2068 Ry                                         
                                                                                
   TITEL  = PAW_PBE Ni 02Aug2007                                                
   LULTRA =        F    use ultrasoft PP ?                                      
   IUNSCR =        1    unscreen: 0-lin 1-nonlin 2-no                           
   RPACOR =    2.000    partial core radius                                     
   POMASS =   58.690; ZVAL   =   10.000    mass and valenz                      
   RCORE  =    2.300    outmost cutoff radius                                   
   RWIGS  =    2.430; RWIGS  =    1.286    wigner-seitz radius (au A)           
   ENMAX  =  269.532; ENMIN  =  202.149 eV                                      
   RCLOC  =    1.201    cutoff for local pot                                    
   LCOR   =        T    correct aug charges                                     
   LPAW   =        T    paw PP                                                  
   EAUG   =  544.565                                                            
   DEXC   =    0.000                                                            
   RMAX   =    2.357    core radius for proj-oper                               
   RAUG   =    1.300    factor for augmentation sphere                          
   RDEP   =    2.390    radius for radial grids                                 
   RDEPT  =    1.838    core radius for aug-charge                              
                                                                                
   Atomic configuration                                                         
    9 entries                                                                   
     n  l   j            E        occ.                                          
     1  0  0.50     -8206.4253   2.0000                                         
     2  0  0.50      -976.1748   2.0000                                         
     2  1  1.50      -839.0571   6.0000                                         
     3  0  0.50      -105.9991   2.0000                                         
     3  1  1.50       -66.4603   6.0000                                         
     3  2  2.50        -4.6458   9.0000                                         
     4  0  0.50        -4.4926   1.0000                                         
     4  1  1.50        -4.0817   0.0000                                         
     4  3  2.50        -1.3606   0.0000                                         
   Description                                                                  
     l       E           TYP  RCUT    TYP  RCUT                                 
     2     -4.6457903     23  2.300                                             
     2     -6.0063729     23  2.300                                             
     0     -4.4925590     23  2.300                                             
     0      5.0102601     23  2.300                                             
     1     -2.7211652     23  2.300                                             
     1     16.5183231     23  2.300                                             
  local pseudopotential read in
  partial core-charges read in
  partial kinetic energy density read in
  atomic valenz-charges read in
  non local Contribution for L=           2  read in
    real space projection operators read in
  non local Contribution for L=           2  read in
    real space projection operators read in
  non local Contribution for L=           0  read in
    real space projection operators read in
  non local Contribution for L=           0  read in
    real space projection operators read in
  non local Contribution for L=           1  read in
    real space projection operators read in
  non local Contribution for L=           1  read in
    real space projection operators read in
    PAW grid and wavefunctions read in
 
   number of l-projection  operators is LMAX  =           6
   number of lm-projection operators is LMMAX =          18
 
 POTCAR:    PAW_PBE Fe 06Sep2000                  
   VRHFIN =Fe:  d7 s1                                                           
   LEXCH  = PE                                                                  
   EATOM  =   594.3153 eV,   43.6809 Ry                                         
                                                                                
   TITEL  = PAW_PBE Fe 06Sep2000                                                
   LULTRA =        F    use ultrasoft PP ?                                      
   IUNSCR =        1    unscreen: 0-lin 1-nonlin 2-no                           
   RPACOR =    2.000    partial core radius                                     
   POMASS =   55.847; ZVAL   =    8.000    mass and valenz                      
   RCORE  =    2.300    outmost cutoff radius                                   
   RWIGS  =    2.460; RWIGS  =    1.302    wigner-seitz radius (au A)           
   ENMAX  =  267.882; ENMIN  =  200.911 eV                                      
   RCLOC  =    1.701    cutoff for local pot                                    
   LCOR   =        T    correct aug charges                                     
   LPAW   =        T    paw PP                                                  
   EAUG   =  511.368                                                            
   DEXC   =    0.000                                                            
   RMAX   =    2.356    core radius for proj-oper                               
   RAUG   =    1.300    factor for augmentation sphere                          
   RDEP   =    2.442    radius for radial grids                                 
   RDEPT  =    1.890    core radius for aug-charge                              
                                                                                
   Atomic configuration                                                         
    9 entries                                                                   
     n  l   j            E        occ.                                          
     1  0  0.50     -6993.8440   2.0000                                         
     2  0  0.50      -814.6047   2.0000                                         
     2  1  1.50      -693.3689   6.0000                                         
     3  0  0.50       -89.4732   2.0000                                         
     3  1  1.50       -55.6373   6.0000                                         
     3  2  2.50        -3.8151   7.0000                                         
     4  0  0.50        -4.2551   1.0000                                         
     4  1  1.50        -3.4015   0.0000                                         
     4  3  2.50        -1.3606   0.0000                                         
   Description                                                                  
     l       E           TYP  RCUT    TYP  RCUT                                 
     2     -3.8151135     23  2.300                                             
     2     -5.1756961     23  2.300                                             
     0     -4.2550963     23  2.300                                             
     0      7.2035603     23  2.300                                             
     1     -2.7211652     23  2.300                                             
     1     18.4316424     23  2.300                                             
  local pseudopotential read in
  partial core-charges read in
  partial kinetic energy density read in
  atomic valenz-charges read in
  non local Contribution for L=           2  read in
    real space projection operators read in
  non local Contribution for L=           2  read in
    real space projection operators read in
  non local Contribution for L=           0  read in
    real space projection operators read in
  non local Contribution for L=           0  read in
    real space projection operators read in
  non local Contribution for L=           1  read in
    real space projection operators read in
  non local Contribution for L=           1  read in
    real space projection operators read in
    PAW grid and wavefunctions read in
 
   number of l-projection  operators is LMAX  =           6
   number of lm-projection operators is LMMAX =          18
 
 Optimization of the real space projectors (new method)

 maximal supplied QI-value         = 16.25
 optimisation between [QCUT,QGAM] = [ 11.54, 23.24] = [ 37.28,151.24] Ry 
 Optimized for a Real-space Cutoff    1.45 Angstroem

   l    n(q)    QCUT    max X(q) W(low)/X(q) W(high)/X(q)  e(spline) 
   2      9    11.539    60.317    0.19E-03    0.47E-04    0.16E-06
   2      9    11.539    55.921    0.19E-03    0.48E-04    0.16E-06
   0     10    11.539    51.690    0.80E-04    0.50E-04    0.24E-06
   0     10    11.539    30.015    0.73E-04    0.45E-04    0.22E-06
   1     10    11.539    18.849    0.87E-04    0.16E-03    0.71E-07
   1     10    11.539    14.624    0.73E-04    0.13E-03    0.64E-07
 Optimization of the real space projectors (new method)

 maximal supplied QI-value         = 16.25
 optimisation between [QCUT,QGAM] = [ 11.54, 23.24] = [ 37.28,151.24] Ry 
 Optimized for a Real-space Cutoff    1.53 Angstroem

   l    n(q)    QCUT    max X(q) W(low)/X(q) W(high)/X(q)  e(spline) 
   2     10    11.539    80.901    0.11E-03    0.14E-03    0.21E-06
   2     10    11.539    75.754    0.11E-03    0.14E-03    0.22E-06
   0     11    11.539    58.752    0.52E-04    0.18E-04    0.33E-06
   0     11    11.539    30.679    0.44E-04    0.16E-04    0.30E-06
   1     10    11.539    17.977    0.53E-04    0.29E-04    0.13E-06
   1     10    11.539    13.559    0.44E-04    0.25E-04    0.11E-06
  PAW_PBE Ni 02Aug2007                  :
 energy of atom  1       EATOM=-1077.6739
 kinetic energy error for atom=    0.0030 (will be added to EATOM!!)
  PAW_PBE Fe 06Sep2000                  :
 energy of atom  2       EATOM= -594.3153
 kinetic energy error for atom=    0.0026 (will be added to EATOM!!)
 
 
 POSCAR: POSCAR                                  
  positions in direct lattice
  velocities in cartesian coordinates
 exchange correlation table for  LEXCH =        8
   RHO(1)=    0.500       N(1)  =     2000
   RHO(2)=  100.500       N(2)  =     4000
 


--------------------------------------------------------------------------------------------------------


 ion  position               nearest neighbor table
   1  0.001  0.001  0.193-  35 2.48   5 2.50  46 2.50  28 2.50   2 2.50   6 2.50   7 2.50  23 2.50
                            41 2.50  15 2.51   4 2.51  44 2.51
   2  0.250  0.000  0.193-  35 2.49  23 2.50  48 2.50  37 2.50   1 2.50   8 2.50   6 2.51   3 2.51
                            36 2.51  24 2.52   9 2.52  46 2.53
   3  0.499  0.999  0.193-  36 2.49  48 2.49  13 2.50  64 2.50   8 2.50   4 2.50  26 2.51   2 2.51
                            24 2.51  39 2.51  10 2.52  11 2.54
   4  0.749  0.999  0.193-  41 2.49  64 2.50  28 2.50   5 2.50  42 2.50   3 2.50  26 2.50  13 2.51
                            10 2.51   1 2.51  12 2.51  15 2.51
   5  0.999  0.249  0.193-  58 2.46  10 2.50   1 2.50  12 2.50   4 2.50   7 2.51  50 2.51  15 2.51
                            17 2.51   6 2.51  19 2.51  18 2.52
   6  0.250  0.250  0.193-  53 2.49   1 2.50  50 2.50   2 2.51  19 2.51   5 2.51   7 2.51   9 2.52
                             8 2.52  46 2.52  52 2.53  51 2.55
   7  0.083  0.167  0.290-  47 2.45  20 2.46  16 2.47   9 2.50  52 2.50  35 2.50   1 2.50  12 2.51
                             5 2.51  41 2.51   6 2.51  18 2.52
   8  0.501  0.249  0.193-  56 2.47   3 2.50  10 2.50   2 2.50  53 2.50  11 2.51  51 2.51   6 2.52
                             9 2.52  22 2.52  21 2.53  48 2.54
   9  0.333  0.167  0.290-  47 2.48  35 2.50  52 2.50  49 2.50  11 2.50   7 2.50  36 2.51  22 2.51
                             6 2.52   8 2.52   2 2.52  54 2.53
  10  0.751  0.250  0.194-  58 2.48  56 2.48  12 2.49  55 2.49   5 2.50   8 2.50   4 2.51  17 2.52
                             3 2.52  13 2.52  21 2.52  11 2.52
  11  0.582  0.168  0.291-  49 2.45  14 2.47  22 2.49  36 2.50   9 2.50   8 2.51  55 2.51  57 2.52
                            10 2.52  12 2.52  64 2.52   3 2.54
  12  0.834  0.167  0.290-  16 2.46  59 2.47  10 2.49  14 2.49  18 2.49   5 2.50   7 2.51  41 2.51
                            55 2.51   4 2.51  64 2.52  11 2.52
  13  0.666  0.083  0.097-  58 2.47  48 2.48  56 2.49   3 2.50  39 2.50  42 2.51   4 2.51  10 2.52
                            15 2.52
  14  0.666  0.083  0.385-  59 2.47  11 2.47  49 2.48  43 2.49  12 2.49  64 2.49  40 2.50  57 2.50
                            16 2.51
  15  0.916  0.082  0.097-  46 2.46  58 2.47  44 2.50  42 2.50   1 2.51   5 2.51   4 2.51  19 2.51
                            13 2.52
  16  0.914  0.080  0.383-  41 2.45  12 2.46  59 2.47  47 2.47   7 2.47  43 2.47  45 2.48  14 2.51
                            20 2.54
  17  0.002  0.500  0.192-  50 2.48  24 2.48  58 2.49  25 2.50   5 2.51  18 2.51  33 2.51  21 2.52
                            10 2.52  23 2.52  55 2.53  60 2.53
  18  0.081  0.417  0.290-  61 2.46  20 2.48  55 2.49  12 2.49  25 2.50  59 2.50  27 2.50  17 2.51
                             5 2.52   7 2.52  50 2.52  52 2.53
  19  0.166  0.334  0.097-  58 2.49  50 2.49  30 2.50  46 2.50   6 2.51   5 2.51  15 2.51  53 2.52
                            60 2.54
  20  0.167  0.334  0.383-  52 2.43   7 2.46  18 2.48  59 2.49  47 2.50  31 2.51  61 2.53  16 2.54
                            54 2.54
  21  0.752  0.502  0.192-  51 2.46  56 2.47  32 2.50  28 2.50  23 2.50  33 2.51  55 2.51  17 2.52
                            10 2.52   8 2.53  62 2.54  22 2.55
  22  0.584  0.417  0.290-  63 2.47  11 2.49  55 2.49  51 2.50  32 2.51  29 2.51   9 2.51  52 2.52
                            54 2.52   8 2.52  57 2.53  21 2.55
  23  0.001  0.751  0.192-  44 2.49  25 2.49   2 2.50  24 2.50  37 2.50  35 2.50  21 2.50   1 2.50
                            28 2.50  32 2.51  17 2.52  33 2.52
  24  0.249  0.749  0.192-  17 2.48  25 2.49  39 2.50  27 2.50  23 2.50  50 2.50  60 2.50   3 2.51
                            37 2.51  26 2.51   2 2.52  36 2.53
  25  0.084  0.668  0.288-  38 2.47  34 2.47  61 2.48  24 2.49  27 2.49  23 2.49  18 2.50  17 2.50
                            36 2.51  32 2.51  35 2.51  55 2.51
  26  0.500  0.749  0.192-  42 2.49  39 2.49  29 2.50  27 2.50   4 2.50   3 2.51  51 2.51  24 2.51
                            28 2.51  50 2.51  30 2.51  64 2.52
  27  0.332  0.666  0.288-  61 2.45  50 2.49  25 2.49  40 2.49  24 2.50  31 2.50  18 2.50  26 2.50
                            36 2.51  52 2.51  64 2.52  29 2.52
  28  0.751  0.751  0.193-  51 2.47  32 2.49  29 2.50  44 2.50   4 2.50  21 2.50   1 2.50  41 2.50
                            23 2.50  42 2.50  26 2.51  62 2.52
  29  0.583  0.666  0.288-  63 2.46  31 2.46  51 2.47  28 2.50  26 2.50  43 2.50  41 2.51  64 2.51
                            22 2.51  52 2.51  32 2.51  27 2.52
  30  0.417  0.582  0.095-  19 2.50  62 2.50  39 2.51  53 2.51  42 2.51  60 2.51  26 2.51  50 2.53
                            51 2.55
  31  0.419  0.583  0.383-  52 2.43  29 2.46  63 2.48  27 2.50  43 2.51  40 2.51  20 2.51  54 2.52
                            61 2.52
  32  0.834  0.667  0.288-  63 2.46  45 2.46  34 2.47  28 2.49  55 2.49  21 2.50  25 2.51  23 2.51
                            22 2.51  29 2.51  35 2.51  41 2.52
  33  0.917  0.583  0.095-  60 2.50  21 2.51  44 2.51  56 2.51  62 2.51  17 2.51  37 2.51  23 2.52
                            58 2.56
  34  0.918  0.583  0.382-  55 2.44  32 2.47  25 2.47  57 2.51  61 2.51  63 2.51  45 2.51  38 2.52
                            59 2.57
  35  0.084  0.918  0.288-  38 2.44  45 2.47   1 2.48  47 2.48   2 2.49   9 2.50  23 2.50   7 2.50
                            25 2.51  32 2.51  36 2.51  41 2.52
  36  0.334  0.917  0.289-  38 2.45  49 2.45  40 2.48   3 2.49  64 2.50  11 2.50  25 2.51  27 2.51
                             9 2.51   2 2.51  35 2.51  24 2.53
  37  0.167  0.835  0.096-  48 2.47  60 2.49  44 2.49  23 2.50  46 2.50   2 2.50  24 2.51  33 2.51
                            39 2.53
  38  0.167  0.836  0.382-  35 2.44  36 2.45  49 2.46  25 2.47  47 2.49  45 2.50  61 2.51  34 2.52
                            40 2.55
  39  0.417  0.832  0.097-  60 2.47  48 2.47  26 2.49  42 2.49  24 2.50  13 2.50  30 2.51   3 2.51
                            37 2.53
  40  0.419  0.833  0.383-  64 2.46  49 2.47  43 2.47  61 2.48  36 2.48  27 2.49  14 2.50  31 2.51
                            38 2.55
  41  0.832  0.917  0.289-  16 2.45  45 2.45  43 2.47   4 2.49  64 2.50  28 2.50   1 2.50  29 2.51
                            12 2.51   7 2.51  32 2.52  35 2.52
  42  0.666  0.833  0.097-  62 2.47  26 2.49  39 2.49  15 2.50   4 2.50  28 2.50  13 2.51  30 2.51
                            44 2.52
  43  0.667  0.835  0.384-  64 2.46  16 2.47  41 2.47  40 2.47  63 2.48  14 2.49  29 2.50  31 2.51
                            45 2.51
  44  0.917  0.833  0.097-  62 2.46  46 2.47  23 2.49  37 2.49  28 2.50  15 2.50  33 2.51   1 2.51
                            42 2.52
  45  0.916  0.833  0.382-  41 2.45  63 2.45  32 2.46  35 2.47  47 2.47  16 2.48  38 2.50  34 2.51
                            43 2.51
  46  0.162  0.082  0.096-  15 2.46  44 2.47   1 2.50  37 2.50  19 2.50   6 2.52  53 2.53   2 2.53
                            48 2.57
  47  0.161  0.082  0.384-   7 2.45  16 2.47  45 2.47  35 2.48   9 2.48  38 2.49  20 2.50  54 2.55
                            49 2.57
  48  0.416  0.078  0.096-  37 2.47  39 2.47  13 2.48   3 2.49   2 2.50  56 2.54   8 2.54  53 2.54
                            46 2.57
  49  0.415  0.077  0.384-  36 2.45  11 2.45  38 2.46  40 2.47  14 2.48   9 2.50  54 2.54  57 2.55
                            47 2.57
  50  0.248  0.499  0.193-  17 2.48  27 2.49  19 2.49  24 2.50   6 2.50   5 2.51  26 2.51  18 2.52
                            30 2.53  52 2.54  60 2.55  51 2.57
  51  0.506  0.503  0.193-  21 2.46  29 2.47  28 2.47  22 2.50  26 2.51   8 2.51  53 2.53  62 2.53
                            30 2.55   6 2.55  52 2.56  50 2.57
  52  0.333  0.416  0.291-  31 2.43  20 2.43   9 2.50   7 2.50  27 2.51  29 2.51  22 2.52   6 2.53
                            18 2.53  54 2.54  50 2.54  51 2.56
  53  0.416  0.331  0.097-   6 2.49   8 2.50  30 2.51  56 2.51  19 2.52  51 2.53  46 2.53  48 2.54
                            62 2.56
  54  0.420  0.332  0.388-  57 2.48  22 2.52  31 2.52   9 2.53  49 2.54  52 2.54  20 2.54  47 2.55
                            63 2.56
  55  0.833  0.418  0.289-  34 2.44  18 2.49  10 2.49  22 2.49  32 2.49  25 2.51  12 2.51  11 2.51
                            21 2.51  17 2.53  57 2.54  59 2.56
  56  0.667  0.332  0.099-  21 2.47   8 2.47  10 2.48  13 2.49  58 2.51  33 2.51  53 2.51  48 2.54
                            62 2.57
  57  0.668  0.334  0.388-  54 2.48  14 2.50  34 2.51  11 2.52  59 2.52  22 2.53  55 2.54  49 2.55
                            63 2.56
  58  0.914  0.327  0.099-   5 2.46  15 2.47  13 2.47  10 2.48  19 2.49  17 2.49  56 2.51  33 2.56
                            60 2.59
  59  0.916  0.326  0.386-  16 2.47  14 2.47  12 2.47  20 2.49  18 2.50  57 2.52  55 2.56  34 2.57
                            61 2.58
  60  0.169  0.588  0.094-  39 2.47  37 2.49  33 2.50  24 2.50  30 2.51  17 2.53  19 2.54  50 2.55
                            58 2.59
  61  0.170  0.587  0.383-  27 2.45  18 2.46  25 2.48  40 2.48  34 2.51  38 2.51  31 2.52  20 2.53
                            59 2.58
  62  0.670  0.589  0.095-  44 2.46  42 2.47  30 2.50  33 2.51  28 2.52  51 2.53  21 2.54  53 2.56
                            56 2.57
  63  0.671  0.590  0.383-  45 2.45  32 2.46  29 2.46  22 2.47  43 2.48  31 2.48  34 2.51  54 2.56
                            57 2.56
  64  0.583  0.916  0.289-  40 2.46  43 2.46  14 2.49  36 2.50   4 2.50  41 2.50   3 2.50  29 2.51
                            12 2.52  27 2.52  26 2.52  11 2.52
 

IMPORTANT INFORMATION: All symmetrisations will be switched off!
NOSYMM: (Re-)initialisation of all symmetry stuff for point group C_1.

 
 

Automatic generation of k-mesh.
 generate k-points for:    4    4    2
Space group operators:
 irot       det(A)        alpha          n_x          n_y          n_z        tau_x        tau_y        tau_z
    1     1.000000     0.000000     1.000000     0.000000     0.000000     0.000000     0.000000     0.000000
 
 Subroutine IBZKPT returns following result:
 ===========================================
 
 Found     20 irreducible k-points:
 
 Following reciprocal coordinates:
            Coordinates               Weight
  0.000000  0.000000  0.000000      1.000000
  0.250000  0.000000  0.000000      2.000000
  0.500000  0.000000  0.000000      1.000000
  0.000000  0.250000  0.000000      2.000000
  0.250000  0.250000  0.000000      2.000000
  0.500000  0.250000  0.000000      2.000000
 -0.250000  0.250000  0.000000      2.000000
  0.000000  0.500000  0.000000      1.000000
  0.250000  0.500000  0.000000      2.000000
  0.500000  0.500000  0.000000      1.000000
  0.000000  0.000000  0.500000      1.000000
  0.250000  0.000000  0.500000      2.000000
  0.500000  0.000000  0.500000      1.000000
  0.000000  0.250000  0.500000      2.000000
  0.250000  0.250000  0.500000      2.000000
  0.500000  0.250000  0.500000      2.000000
 -0.250000  0.250000  0.500000      2.000000
  0.000000  0.500000  0.500000      1.000000
  0.250000  0.500000  0.500000      2.000000
  0.500000  0.500000  0.500000      1.000000
 
 Following cartesian coordinates:
            Coordinates               Weight
  0.000000  0.000000  0.000000      1.000000
  0.024933  0.014395  0.000000      2.000000
  0.049867  0.028790  0.000000      1.000000
  0.000000  0.028790  0.000000      2.000000
  0.024933  0.043186  0.000000      2.000000
  0.049867  0.057581  0.000000      2.000000
 -0.024933  0.014395  0.000000      2.000000
  0.000000  0.057581  0.000000      1.000000
  0.024933  0.071976  0.000000      2.000000
  0.049867  0.086371  0.000000      1.000000
  0.000000  0.000000  0.023537      1.000000
  0.024933  0.014395  0.023537      2.000000
  0.049867  0.028790  0.023537      1.000000
  0.000000  0.028790  0.023537      2.000000
  0.024933  0.043186  0.023537      2.000000
  0.049867  0.057581  0.023537      2.000000
 -0.024933  0.014395  0.023537      2.000000
  0.000000  0.057581  0.023537      1.000000
  0.024933  0.071976  0.023537      2.000000
  0.049867  0.086371  0.023537      1.000000
 
 TETIRR: Found     96 inequivalent tetrahedra from      192


--------------------------------------------------------------------------------------------------------




 Dimension of arrays:
   k-points           NKPTS =     20   k-points in BZ     NKDIM =     20   number of bands    NBANDS=    414
   number of dos      NEDOS =    301   number of ions     NIONS =     64
   non local maximal  LDIM  =      6   non local SUM 2l+1 LMDIM =     18
   total plane-waves  NPLWV = ******
   max r-space proj   IRMAX =   8418   max aug-charges    IRDMAX=  19919
   dimension x,y,z NGX =    80 NGY =   80 NGZ =  160
   dimension x,y,z NGXF=   160 NGYF=  160 NGZF=  320
   support grid    NGXF=   160 NGYF=  160 NGZF=  320
   ions per type =              45  19
   NGX,Y,Z   is equivalent  to a cutoff of  13.26, 13.26, 12.52 a.u.
   NGXF,Y,Z  is equivalent  to a cutoff of  26.53, 26.53, 25.04 a.u.

 SYSTEM =  SQS-NiFe                                
 POSCAR =  POSCAR                                  

 Startparameter for this run:
   NWRITE =      2    write-flag & timer
   PREC   = accura    normal or accurate (medium, high low for compatibility)
   ISTART =      0    job   : 0-new  1-cont  2-samecut
   ICHARG =     11    charge: 1-file 2-atom 10-const
   ISPIN  =      2    spin polarized calculation?
   LNONCOLLINEAR =      F non collinear calculations
   LSORBIT =      F    spin-orbit coupling
   INIWAV =      1    electr: 0-lowe 1-rand  2-diag
   LASPH  =      F    aspherical Exc in radial PAW
   METAGGA=      F    non-selfconsistent MetaGGA calc.

 Electronic Relaxation 1
   ENCUT  =  520.0 eV  38.22 Ry    6.18 a.u.  18.64 18.64 39.50*2*pi/ulx,y,z
   ENINI  =  520.0     initial cutoff
   ENAUG  =  544.6 eV  augmentation charge cutoff
   NELM   =    200;   NELMIN=  2; NELMDL= -5     # of ELM steps 
   EDIFF  = 0.1E-05   stopping-criterion for ELM
   LREAL  =      T    real-space projection
   NLSPLINE    = F    spline interpolate recip. space projectors
   LCOMPAT=      F    compatible to vasp.4.4
   GGA_COMPAT  = T    GGA compatible to vasp.4.4-vasp.4.6
   LMAXPAW     = -100 max onsite density
   LMAXMIX     =    2 max onsite mixed and CHGCAR
   VOSKOWN=      0    Vosko Wilk Nusair interpolation
   ROPT   =   -0.00025  -0.00025
 Ionic relaxation
   EDIFFG = -.2E-01   stopping-criterion for IOM
   NSW    =      0    number of steps for IOM
   NBLOCK =      1;   KBLOCK =      1    inner block; outer block 
   IBRION =     -1    ionic relax: 0-MD 1-quasi-New 2-CG
   NFREE  =      0    steps in history (QN), initial steepest desc. (CG)
   ISIF   =      2    stress and relaxation
   IWAVPR =     10    prediction:  0-non 1-charg 2-wave 3-comb
   ISYM   =      0    0-nonsym 1-usesym 2-fastsym
   LCORR  =      T    Harris-Foulkes like correction to forces

   POTIM  = 0.5000    time-step for ionic-motion
   TEIN   =    0.0    initial temperature
   TEBEG  =    0.0;   TEEND  =   0.0 temperature during run
   SMASS  =  -3.00    Nose mass-parameter (am)
   estimated Nose-frequenzy (Omega)   =  0.10E-29 period in steps =****** mass=  -0.230E-26a.u.
   SCALEE = 1.0000    scale energy and forces
   NPACO  =    256;   APACO  = 16.0  distance and # of slots for P.C.
   PSTRESS=    0.0 pullay stress

  Mass of Ions in am
   POMASS =  58.69 55.85
  Ionic Valenz
   ZVAL   =  10.00  8.00
  Atomic Wigner-Seitz radii
   RWIGS  =  -1.00 -1.00
  virtual crystal weights 
   VCA    =   1.00  1.00
   NELECT =     602.0000    total number of electrons
   NUPDOWN=      -1.0000    fix difference up-down

 DOS related values:
   EMIN   =  10.00;   EMAX   =-10.00  energy-range for DOS
   EFERMI =   0.00
   ISMEAR =    -5;   SIGMA  =   0.20  broadening in eV -4-tet -1-fermi 0-gaus

 Electronic relaxation 2 (details)
   IALGO  =     68    algorithm
   LDIAG  =      T    sub-space diagonalisation (order eigenvalues)
   LSUBROT=      F    optimize rotation matrix (better conditioning)
   TURBO    =      0    0=normal 1=particle mesh
   IRESTART =      0    0=no restart 2=restart with 2 vectors
   NREBOOT  =      0    no. of reboots
   NMIN     =      0    reboot dimension
   EREF     =   0.00    reference energy to select bands
   IMIX   =      4    mixing-type and parameters
     AMIX     =   0.40;   BMIX     =  1.00
     AMIX_MAG =   1.60;   BMIX_MAG =  1.00
     AMIN     =   0.10
     WC   =   100.;   INIMIX=   1;  MIXPRE=   1;  MAXMIX= -45

 Intra band minimization:
   WEIMIN = 0.0000     energy-eigenvalue tresh-hold
   EBREAK =  0.60E-09  absolut break condition
   DEPER  =   0.30     relativ break condition  

   TIME   =   0.40     timestep for ELM

  volume/ion in A,a.u.               =      28.90       195.03
  Fermi-wavevector in a.u.,A,eV,Ry     =   1.126111  2.128040 17.253886  1.268125
  Thomas-Fermi vector in A             =   2.262791
 
 Write flags
   LWAVE        =      F    write WAVECAR
   LDOWNSAMPLE  =      F    k-point downsampling of WAVECAR
   LCHARG       =      F    write CHGCAR
   LVTOT        =      F    write LOCPOT, total local potential
   LVHAR        =      F    write LOCPOT, Hartree potential only
   LELF         =      F    write electronic localiz. function (ELF)
   LORBIT       =     11    0 simple, 1 ext, 2 COOP (PROOUT), +10 PAW based schemes


 Dipole corrections
   LMONO  =      F    monopole corrections only (constant potential shift)
   LDIPOL =      T    correct potential (dipole corrections)
   IDIPOL =      3    1-x, 2-y, 3-z, 4-all directions 
   EPSILON=  1.0000000 bulk dielectric constant

 Exchange correlation treatment:
   GGA     =    --    GGA type
   LEXCH   =     8    internal setting for exchange type
   VOSKOWN=      0    Vosko Wilk Nusair interpolation
   LHFCALC =     F    Hartree Fock is set to
   LHFONE  =     F    Hartree Fock one center treatment
   AEXX    =    0.0000 exact exchange contribution

 Linear response parameters
   LEPSILON=     F    determine dielectric tensor
   LRPA    =     F    only Hartree local field effects (RPA)
   LNABLA  =     F    use nabla operator in PAW spheres
   LVEL    =     F    velocity operator in full k-point grid
   LINTERFAST=   F  fast interpolation
   KINTER  =     0    interpolate to denser k-point grid
   CSHIFT  =0.1000    complex shift for real part using Kramers Kronig
   OMEGAMAX=  -1.0    maximum frequency
   DEG_THRESHOLD= 0.2000000E-02 threshold for treating states as degnerate
   RTIME   =   -0.100 relaxation time in fs
  (WPLASMAI=    0.000 imaginary part of plasma frequency in eV, 0.658/RTIME)
   DFIELD  = 0.0000000 0.0000000 0.0000000 field for delta impulse in time
 
 Orbital magnetization related:
   ORBITALMAG=     F  switch on orbital magnetization
   LCHIMAG   =     F  perturbation theory with respect to B field
   DQ        =  0.001000  dq finite difference perturbation B field
   LLRAUG    =     F  two centre corrections for induced B field



--------------------------------------------------------------------------------------------------------


 Static calculation
 charge density and potential remain constant during run
 spin polarized calculation
 RMM-DIIS sequential band-by-band and
  variant of blocked Davidson during initial phase
 perform sub-space diagonalisation
    before iterative eigenvector-optimisation
 no mixing
 using additional bands          113
 real space projection scheme for non local part
 use partial core corrections
 calculate Harris-corrections to forces 
   (improved forces if not selfconsistent)
 use gradient corrections 
 WARNING: stress and forces are not correct
  (second derivative of E(xc) not defined)
 use of overlap-Matrix (Vanderbilt PP)
 Fermi weights with tetrahedron method with Bloechl corrections


--------------------------------------------------------------------------------------------------------


  energy-cutoff  :      520.00
  volume of cell :     1849.60
      direct lattice vectors                 reciprocal lattice vectors
    10.026770000  0.000000000  0.000000000     0.099733015  0.057580883  0.000000000
    -5.013385000  8.683437540  0.000000000     0.000000000  0.115161766  0.000000000
     0.000000000  0.000000000 21.243458220     0.000000000  0.000000000  0.047073315

  length of vectors
    10.026770000 10.026770002 21.243458220     0.115161766  0.115161766  0.047073315


 
 k-points in units of 2pi/SCALE and weight: read from INCAR                         
   0.00000000  0.00000000  0.00000000       0.031
   0.02493325  0.01439522  0.00000000       0.062
   0.04986651  0.02879044  0.00000000       0.031
   0.00000000  0.02879044  0.00000000       0.062
   0.02493325  0.04318566  0.00000000       0.062
   0.04986651  0.05758088  0.00000000       0.062
  -0.02493325  0.01439522  0.00000000       0.062
   0.00000000  0.05758088  0.00000000       0.031
   0.02493325  0.07197610  0.00000000       0.062
   0.04986651  0.08637132  0.00000000       0.031
   0.00000000  0.00000000  0.02353666       0.031
   0.02493325  0.01439522  0.02353666       0.062
   0.04986651  0.02879044  0.02353666       0.031
   0.00000000  0.02879044  0.02353666       0.062
   0.02493325  0.04318566  0.02353666       0.062
   0.04986651  0.05758088  0.02353666       0.062
  -0.02493325  0.01439522  0.02353666       0.062
   0.00000000  0.05758088  0.02353666       0.031
   0.02493325  0.07197610  0.02353666       0.062
   0.04986651  0.08637132  0.02353666       0.031
 
 k-points in reciprocal lattice and weights: read from INCAR                         
   0.00000000  0.00000000  0.00000000       0.031
   0.25000000  0.00000000  0.00000000       0.062
   0.50000000  0.00000000  0.00000000       0.031
   0.00000000  0.25000000  0.00000000       0.062
   0.25000000  0.25000000  0.00000000       0.062
   0.50000000  0.25000000  0.00000000       0.062
  -0.25000000  0.25000000  0.00000000       0.062
   0.00000000  0.50000000  0.00000000       0.031
   0.25000000  0.50000000  0.00000000       0.062
   0.50000000  0.50000000  0.00000000       0.031
   0.00000000  0.00000000  0.50000000       0.031
   0.25000000  0.00000000  0.50000000       0.062
   0.50000000  0.00000000  0.50000000       0.031
   0.00000000  0.25000000  0.50000000       0.062
   0.25000000  0.25000000  0.50000000       0.062
   0.50000000  0.25000000  0.50000000       0.062
  -0.25000000  0.25000000  0.50000000       0.062
   0.00000000  0.50000000  0.50000000       0.031
   0.25000000  0.50000000  0.50000000       0.062
   0.50000000  0.50000000  0.50000000       0.031
 
 position of ions in fractional coordinates (direct lattice) 
   0.00052900  0.00053000  0.19343852
   0.25001300  0.00028700  0.19258269
   0.49948700  0.99908000  0.19330643
   0.74930200  0.99919300  0.19338794
   0.99864000  0.24850700  0.19328475
   0.25012600  0.25021600  0.19292722
   0.08336116  0.16673942  0.28971363
   0.50064200  0.24891300  0.19337349
   0.33251558  0.16672146  0.29003809
   0.75052500  0.25006200  0.19419811
   0.58205899  0.16750077  0.29082113
   0.83368973  0.16749147  0.28964068
   0.66558100  0.08305500  0.09724336
   0.66617656  0.08342066  0.38474791
   0.91639700  0.08203100  0.09671153
   0.91438979  0.07994219  0.38301659
   0.00183400  0.50047500  0.19189796
   0.08079342  0.41707357  0.28975401
   0.16611800  0.33395200  0.09673755
   0.16715157  0.33354935  0.38338823
   0.75170200  0.50186900  0.19211445
   0.58406285  0.41660187  0.29044328
   0.00109100  0.75115300  0.19219162
   0.24902600  0.74885700  0.19200086
   0.08424204  0.66762005  0.28785500
   0.49972500  0.74917300  0.19214971
   0.33170912  0.66553522  0.28798041
   0.75128300  0.75093600  0.19293993
   0.58313031  0.66622498  0.28829452
   0.41661000  0.58200200  0.09548198
   0.41935871  0.58261286  0.38279187
   0.83383535  0.66665020  0.28833359
   0.91708300  0.58323900  0.09545972
   0.91763157  0.58333526  0.38229636
   0.08396559  0.91764489  0.28819018
   0.33447158  0.91703463  0.28906484
   0.16670900  0.83524200  0.09602941
   0.16674247  0.83610271  0.38151894
   0.41703500  0.83214900  0.09672078
   0.41888676  0.83263147  0.38348745
   0.83247151  0.91680478  0.28920011
   0.66623900  0.83337000  0.09700230
   0.66682335  0.83549780  0.38370170
   0.91705900  0.83319500  0.09682368
   0.91645265  0.83340763  0.38208738
   0.16168500  0.08211500  0.09597016
   0.16119563  0.08169737  0.38371049
   0.41607500  0.07807100  0.09643550
   0.41546189  0.07698330  0.38406887
   0.24829900  0.49904600  0.19264223
   0.50648100  0.50259500  0.19338476
   0.33280719  0.41592383  0.29091249
   0.41638400  0.33144300  0.09718295
   0.41981185  0.33191054  0.38802946
   0.83317826  0.41773702  0.28922934
   0.66732400  0.33240600  0.09901110
   0.66787905  0.33367392  0.38787520
   0.91446400  0.32695500  0.09862235
   0.91570289  0.32635611  0.38629279
   0.16914200  0.58833400  0.09414663
   0.16973924  0.58690001  0.38263309
   0.66961600  0.58928900  0.09452787
   0.67051604  0.59025680  0.38276460
   0.58303765  0.91622621  0.28929666
 
 position of ions in cartesian coordinates  (Angst):
   0.00264707  0.00460222  4.10930312
   2.50538401  0.00249215  4.09112233
  -0.00053142  8.67544878  4.10649707
   2.50373962  8.67643001  4.10822862
   8.76727233  2.15789501  4.10603651
   1.25352673  2.17273501  4.09844134
  -0.00008572  1.44787133  6.15451950
   3.77192549  2.16142049  4.10792166
   2.49821842  1.44771536  6.16141205
   6.27168447  2.17139776  4.12543944
   4.99642574  1.45448248  6.17804660
   7.51951594  1.45440173  6.15296979
   6.25724091  0.72120290  2.06578526
   6.26137924  0.72437813  8.17337617
   8.77724896  0.71231106  2.05448735
   8.76759519  0.69417299  8.13659697
  -2.49068476  4.34584340  4.07657630
  -1.28085339  3.62163230  6.15537714
  -0.00860297  2.89985133  2.05504010
   0.00377900  2.89635494  8.14449178
   5.02108055  4.35794811  4.08117529
   3.76767827  3.61753630  6.17001973
  -3.75487998  6.52259016  4.08281465
  -1.25738202  6.50265299  4.07876225
  -2.50236079  5.79723699  6.11503560
   1.25473496  6.50539695  4.08192434
  -0.01061324  5.77913355  6.11769986
   3.76821057  6.52070585  4.09871134
   2.50687116  5.78512297  6.12437255
   1.25945255  5.05377802  2.02836745
   1.28395072  5.05908238  8.13182306
   5.01850119  5.78881541  6.12520260
   6.27137866  5.06451943  2.02789457
   6.27639649  5.06535531  8.12129671
  -3.75860350  7.96831208  6.12215613
  -1.24377805  7.96301289  6.14073686
  -2.51583691  7.25277174  2.03999676
  -2.51981641  7.26024565  8.10478159
   0.00963071  7.22591387  2.05468385
   0.02577914  7.23010333  8.14659968
   3.75070501  7.96101705  6.14361044
   2.50222056  7.23651634  2.06066431
   2.49741217  7.25499300  8.15115098
   5.01801235  7.23499674  2.05686980
   5.01086662  7.23684307  8.11685725
   1.20950420  0.71304047  2.03873808
   1.20669108  0.70941405  8.15133784
   3.78048835  0.67792465  2.04862352
   3.77979393  0.66847964  8.15895107
  -0.01227277  4.33343477  4.09238716
   2.55866626  4.36425229  4.10816107
   1.25179489  3.61164856  6.17998729
   2.51333524  2.87806459  2.06450194
   2.54536160  2.88212442  8.24308761
   6.25981026  3.62739336  6.14423140
   5.02462501  2.88642674  2.10333817
   5.02383377  2.89743666  8.23981069
   7.52996891  2.83909332  2.09507977
   7.54539345  2.83389292  8.20619468
  -1.25359692  5.10876154  2.00000000
  -1.24041935  5.09630958  8.12844999
   3.75975299  5.11705422  2.00809886
   3.76392557  5.12545806  8.13124383
   1.25258962  7.95599309  6.14566150
 


--------------------------------------------------------------------------------------------------------


 k-point  1 :   0.0000 0.0000 0.0000  plane waves:   49897
 k-point  2 :   0.2500 0.0000 0.0000  plane waves:   49814
 k-point  3 :   0.5000 0.0000 0.0000  plane waves:   49818
 k-point  4 :   0.0000 0.2500 0.0000  plane waves:   49814
 k-point  5 :   0.2500 0.2500 0.0000  plane waves:   49805
 k-point  6 :   0.5000 0.2500 0.0000  plane waves:   49805
 k-point  7 :  -0.2500 0.2500 0.0000  plane waves:   49814
 k-point  8 :   0.0000 0.5000 0.0000  plane waves:   49818
 k-point  9 :   0.2500 0.5000 0.0000  plane waves:   49805
 k-point 10 :   0.5000 0.5000 0.0000  plane waves:   49818
 k-point 11 :   0.0000 0.0000 0.5000  plane waves:   49926
 k-point 12 :   0.2500 0.0000 0.5000  plane waves:   49810
 k-point 13 :   0.5000 0.0000 0.5000  plane waves:   49800
 k-point 14 :   0.0000 0.2500 0.5000  plane waves:   49810
 k-point 15 :   0.2500 0.2500 0.5000  plane waves:   49784
 k-point 16 :   0.5000 0.2500 0.5000  plane waves:   49784
 k-point 17 :  -0.2500 0.2500 0.5000  plane waves:   49810
 k-point 18 :   0.0000 0.5000 0.5000  plane waves:   49800
 k-point 19 :   0.2500 0.5000 0.5000  plane waves:   49784
 k-point 20 :   0.5000 0.5000 0.5000  plane waves:   49800

 maximum and minimum number of plane-waves per node :      2111     2056

 maximum number of plane-waves:     49926
 maximum index in each direction: 
   IXMAX=   18   IYMAX=   18   IZMAX=   39
   IXMIN=  -19   IYMIN=  -19   IZMIN=  -39


 real space projection operators:
  total allocation   :      64717.59 KBytes
  max/ min on nodes  :       3265.31       2375.86


 parallel 3D FFT for wavefunctions:
    minimum data exchange during FFTs selected (reduces bandwidth)
 parallel 3D FFT for charge:
    minimum data exchange during FFTs selected (reduces bandwidth)


 total amount of memory used by VASP MPI-rank0   255750. kBytes
=======================================================================

   base      :      30000. kBytes
   nonlr-proj:      13088. kBytes
   fftplans  :       6403. kBytes
   grid      :      16455. kBytes
   one-center:         93. kBytes
   wavefun   :     189711. kBytes
 
     INWAV:  cpu time    0.0010: real time    0.0006
 initial charge density was supplied:
 number of electron     602.0000008 magnetization      81.9189115
 keeping initial charge density in first step


--------------------------------------------------------------------------------------------------------


 Maximum index for non-local projection operator          766
 Maximum index for augmentation-charges         1119 (set IRDMAX)


--------------------------------------------------------------------------------------------------------


 First call to EWALD:  gamma=   0.144
 Maximum number of real-space cells 4x 4x 2
 Maximum number of reciprocal cells 2x 2x 4

    FEWALD:  cpu time    0.0040: real time    0.0030


--------------------------------------- Iteration      1(   1)  ---------------------------------------


    POTLOK:  cpu time    0.2500: real time    0.2527
    SETDIJ:  cpu time    0.0180: real time    0.0198
     EDDAV:  cpu time   99.9768: real time  100.4834
 BZINTS: Fermi energy: 11.263964;602.000000 electrons
         Band energy:3754.420513;  BLOECHL correction: -0.015075
       DOS:  cpu time    0.1990: real time    0.1984
    --------------------------------------------
      LOOP:  cpu time  100.4437: real time  100.9543

 eigenvalue-minimisations  : 33120
 total energy-change (2. order) : 0.4583282E+04  (-0.2622279E+05)
 number of electron     602.0000008 magnetization      81.9189115
 augmentation part      602.0000008 magnetization      81.9189115

 DIPCOR: dipole corrections for dipol
 direction  3 min pos   237,
 dipolmoment           0.000000      0.000000     -0.004011 electrons x Angstroem
 Tr[quadrupol]     -9834.938822

 energy correction for charged system         0.000000 eV
 dipol+quadrupol energy correction           -0.000001 eV
 added-field ion interaction          0.014859 eV  (added to PSCEN)


 Free energy of the ion-electron system (eV)
  ---------------------------------------------------
  alpha Z        PSCENC =      1281.22551652
  Ewald energy   TEWEN  =    214108.57347568
  -Hartree energ DENC   =   -272556.95618574
  -exchange      EXHF   =         0.00000000
  -V(xc)+E(xc)   XCENC  =      1461.40382402
  PAW double counting   =     63746.80906999   -66999.32673687
  entropy T*S    EENTRO =         0.00000000
  eigenvalues    EBANDS =      3754.42051323
  atomic energy  EATOM  =     59787.13230648
  Solvation  Ediel_sol  =         0.00000000
  ---------------------------------------------------
  free energy    TOTEN  =      4583.28178331 eV

  energy without entropy =     4583.28178331  energy(sigma->0) =     4583.28178331


--------------------------------------------------------------------------------------------------------




--------------------------------------- Iteration      1(   2)  ---------------------------------------


     EDDAV:  cpu time   99.9588: real time  100.4137
 BZINTS: Fermi energy:  1.478851;602.000000 electrons
         Band energy:-760.127090;  BLOECHL correction: -0.007170
       DOS:  cpu time    0.1980: real time    0.1973
    --------------------------------------------
      LOOP:  cpu time  100.1568: real time  100.6111

 eigenvalue-minimisations  : 33120
 total energy-change (2. order) :-0.4514548E+04  (-0.4243523E+04)
 number of electron     602.0000008 magnetization      81.9189115
 augmentation part      602.0000008 magnetization      81.9189115

 DIPCOR: dipole corrections for dipol
 direction  3 min pos   237,
 dipolmoment           0.000000      0.000000     -0.004011 electrons x Angstroem
 Tr[quadrupol]     -9834.938822

 energy correction for charged system         0.000000 eV
 dipol+quadrupol energy correction           -0.000001 eV
 added-field ion interaction          0.014859 eV  (added to PSCEN)


 Free energy of the ion-electron system (eV)
  ---------------------------------------------------
  alpha Z        PSCENC =      1281.22551652
  Ewald energy   TEWEN  =    214108.57347568
  -Hartree energ DENC   =   -272556.95618574
  -exchange      EXHF   =         0.00000000
  -V(xc)+E(xc)   XCENC  =      1461.40382402
  PAW double counting   =     63746.80906999   -66999.32673687
  entropy T*S    EENTRO =         0.00000000
  eigenvalues    EBANDS =      -760.12709016
  atomic energy  EATOM  =     59787.13230648
  Solvation  Ediel_sol  =         0.00000000
  ---------------------------------------------------
  free energy    TOTEN  =        68.73417992 eV

  energy without entropy =       68.73417992  energy(sigma->0) =       68.73417992


--------------------------------------------------------------------------------------------------------




--------------------------------------- Iteration      1(   3)  ---------------------------------------


     EDDAV:  cpu time  100.5067: real time  100.8509
 BZINTS: Fermi energy:  0.282264;602.000000 electrons
         Band energy:***********;  BLOECHL correction: -0.123519
       DOS:  cpu time    0.1900: real time    0.1901
    --------------------------------------------
      LOOP:  cpu time  100.6967: real time  101.0410

 eigenvalue-minimisations  : 34119
 total energy-change (2. order) :-0.4331997E+03  (-0.3726303E+03)
 number of electron     602.0000008 magnetization      81.9189115
 augmentation part      602.0000008 magnetization      81.9189115

 DIPCOR: dipole corrections for dipol
 direction  3 min pos   237,
 dipolmoment           0.000000      0.000000     -0.004011 electrons x Angstroem
 Tr[quadrupol]     -9834.938822

 energy correction for charged system         0.000000 eV
 dipol+quadrupol energy correction           -0.000001 eV
 added-field ion interaction          0.014859 eV  (added to PSCEN)


 Free energy of the ion-electron system (eV)
  ---------------------------------------------------
  alpha Z        PSCENC =      1281.22551652
  Ewald energy   TEWEN  =    214108.57347568
  -Hartree energ DENC   =   -272556.95618574
  -exchange      EXHF   =         0.00000000
  -V(xc)+E(xc)   XCENC  =      1461.40382402
  PAW double counting   =     63746.80906999   -66999.32673687
  entropy T*S    EENTRO =         0.00000000
  eigenvalues    EBANDS =     -1193.32674501
  atomic energy  EATOM  =     59787.13230648
  Solvation  Ediel_sol  =         0.00000000
  ---------------------------------------------------
  free energy    TOTEN  =      -364.46547493 eV

  energy without entropy =     -364.46547493  energy(sigma->0) =     -364.46547493


--------------------------------------------------------------------------------------------------------




--------------------------------------- Iteration      1(   4)  ---------------------------------------


     EDDAV:  cpu time  103.2813: real time  103.6420
 BZINTS: Fermi energy:  0.248515;602.000000 electrons
         Band energy:***********;  BLOECHL correction: -0.123982
       DOS:  cpu time    0.1870: real time    0.1874
    --------------------------------------------
      LOOP:  cpu time  103.4683: real time  103.8294

 eigenvalue-minimisations  : 35298
 total energy-change (2. order) :-0.1811042E+02  (-0.1774917E+02)
 number of electron     602.0000008 magnetization      81.9189115
 augmentation part      602.0000008 magnetization      81.9189115

 DIPCOR: dipole corrections for dipol
 direction  3 min pos   237,
 dipolmoment           0.000000      0.000000     -0.004011 electrons x Angstroem
 Tr[quadrupol]     -9834.938822

 energy correction for charged system         0.000000 eV
 dipol+quadrupol energy correction           -0.000001 eV
 added-field ion interaction          0.014859 eV  (added to PSCEN)


 Free energy of the ion-electron system (eV)
  ---------------------------------------------------
  alpha Z        PSCENC =      1281.22551652
  Ewald energy   TEWEN  =    214108.57347568
  -Hartree energ DENC   =   -272556.95618574
  -exchange      EXHF   =         0.00000000
  -V(xc)+E(xc)   XCENC  =      1461.40382402
  PAW double counting   =     63746.80906999   -66999.32673687
  entropy T*S    EENTRO =         0.00000000
  eigenvalues    EBANDS =     -1211.43716133
  atomic energy  EATOM  =     59787.13230648
  Solvation  Ediel_sol  =         0.00000000
  ---------------------------------------------------
  free energy    TOTEN  =      -382.57589124 eV

  energy without entropy =     -382.57589124  energy(sigma->0) =     -382.57589124


--------------------------------------------------------------------------------------------------------




--------------------------------------- Iteration      1(   5)  ---------------------------------------


     EDDAV:  cpu time  110.8311: real time  111.2746
 BZINTS: Fermi energy:  0.247995;602.000000 electrons
         Band energy:***********;  BLOECHL correction: -0.123970
       DOS:  cpu time    0.1880: real time    0.1882
    --------------------------------------------
      LOOP:  cpu time  111.0191: real time  111.4628

 eigenvalue-minimisations  : 38691
 total energy-change (2. order) :-0.3523163E+00  (-0.3520718E+00)
 number of electron     602.0000008 magnetization      81.9189115
 augmentation part      602.0000008 magnetization      81.9189115

 DIPCOR: dipole corrections for dipol
 direction  3 min pos   237,
 dipolmoment           0.000000      0.000000     -0.004011 electrons x Angstroem
 Tr[quadrupol]     -9834.938822

 energy correction for charged system         0.000000 eV
 dipol+quadrupol energy correction           -0.000001 eV
 added-field ion interaction          0.014859 eV  (added to PSCEN)


 Free energy of the ion-electron system (eV)
  ---------------------------------------------------
  alpha Z        PSCENC =      1281.22551652
  Ewald energy   TEWEN  =    214108.57347568
  -Hartree energ DENC   =   -272556.95618574
  -exchange      EXHF   =         0.00000000
  -V(xc)+E(xc)   XCENC  =      1461.40382402
  PAW double counting   =     63746.80906999   -66999.32673687
  entropy T*S    EENTRO =         0.00000000
  eigenvalues    EBANDS =     -1211.78947765
  atomic energy  EATOM  =     59787.13230648
  Solvation  Ediel_sol  =         0.00000000
  ---------------------------------------------------
  free energy    TOTEN  =      -382.92820757 eV

  energy without entropy =     -382.92820757  energy(sigma->0) =     -382.92820757


--------------------------------------------------------------------------------------------------------




--------------------------------------- Iteration      1(   6)  ---------------------------------------


    EDDIAG:  cpu time   14.7048: real time   14.7402
  RMM-DIIS:  cpu time   63.1764: real time   63.4850
    ORTHCH:  cpu time    2.8566: real time    2.8712
 BZINTS: Fermi energy:  0.247969;602.000000 electrons
         Band energy:***********;  BLOECHL correction: -0.123966
       DOS:  cpu time    0.1900: real time    0.1901
    --------------------------------------------
      LOOP:  cpu time   80.9277: real time   81.2866

 eigenvalue-minimisations  : 34479
 total energy-change (2. order) :-0.1203484E-01  (-0.1203149E-01)
 number of electron     602.0000008 magnetization      81.9189115
 augmentation part      602.0000008 magnetization      81.9189115

 DIPCOR: dipole corrections for dipol
 direction  3 min pos   237,
 dipolmoment           0.000000      0.000000     -0.004011 electrons x Angstroem
 Tr[quadrupol]     -9834.938822

 energy correction for charged system         0.000000 eV
 dipol+quadrupol energy correction           -0.000001 eV
 added-field ion interaction          0.014859 eV  (added to PSCEN)


 Free energy of the ion-electron system (eV)
  ---------------------------------------------------
  alpha Z        PSCENC =      1281.22551652
  Ewald energy   TEWEN  =    214108.57347568
  -Hartree energ DENC   =   -272556.95618574
  -exchange      EXHF   =         0.00000000
  -V(xc)+E(xc)   XCENC  =      1461.40382402
  PAW double counting   =     63746.80906999   -66999.32673687
  entropy T*S    EENTRO =         0.00000000
  eigenvalues    EBANDS =     -1211.80151249
  atomic energy  EATOM  =     59787.13230648
  Solvation  Ediel_sol  =         0.00000000
  ---------------------------------------------------
  free energy    TOTEN  =      -382.94024241 eV

  energy without entropy =     -382.94024241  energy(sigma->0) =     -382.94024241


--------------------------------------------------------------------------------------------------------




--------------------------------------- Iteration      1(   7)  ---------------------------------------


    EDDIAG:  cpu time   15.2537: real time   15.3084
  RMM-DIIS:  cpu time   90.8292: real time   91.2599
    ORTHCH:  cpu time    2.6856: real time    2.6941
 BZINTS: Fermi energy:  0.247962;602.000000 electrons
         Band energy:***********;  BLOECHL correction: -0.123965
       DOS:  cpu time    0.1870: real time    0.1886
    --------------------------------------------
      LOOP:  cpu time  108.9554: real time  109.4509

 eigenvalue-minimisations  : 50560
 total energy-change (2. order) :-0.3788432E-02  (-0.3777361E-02)
 number of electron     602.0000008 magnetization      81.9189115
 augmentation part      602.0000008 magnetization      81.9189115

 DIPCOR: dipole corrections for dipol
 direction  3 min pos   237,
 dipolmoment           0.000000      0.000000     -0.004011 electrons x Angstroem
 Tr[quadrupol]     -9834.938822

 energy correction for charged system         0.000000 eV
 dipol+quadrupol energy correction           -0.000001 eV
 added-field ion interaction          0.014859 eV  (added to PSCEN)


 Free energy of the ion-electron system (eV)
  ---------------------------------------------------
  alpha Z        PSCENC =      1281.22551652
  Ewald energy   TEWEN  =    214108.57347568
  -Hartree energ DENC   =   -272556.95618574
  -exchange      EXHF   =         0.00000000
  -V(xc)+E(xc)   XCENC  =      1461.40382402
  PAW double counting   =     63746.80906999   -66999.32673687
  entropy T*S    EENTRO =         0.00000000
  eigenvalues    EBANDS =     -1211.80530093
  atomic energy  EATOM  =     59787.13230648
  Solvation  Ediel_sol  =         0.00000000
  ---------------------------------------------------
  free energy    TOTEN  =      -382.94403084 eV

  energy without entropy =     -382.94403084  energy(sigma->0) =     -382.94403084


--------------------------------------------------------------------------------------------------------




--------------------------------------- Iteration      1(   8)  ---------------------------------------


    EDDIAG:  cpu time   14.7378: real time   14.7950
  RMM-DIIS:  cpu time   81.8846: real time   82.2796
    ORTHCH:  cpu time    2.5716: real time    2.5857
 BZINTS: Fermi energy:  0.247962;602.000000 electrons
         Band energy:***********;  BLOECHL correction: -0.123965
       DOS:  cpu time    0.1860: real time    0.1874
    --------------------------------------------
      LOOP:  cpu time   99.3799: real time   99.8479

 eigenvalue-minimisations  : 45427
 total energy-change (2. order) :-0.7833907E-04  (-0.8707733E-04)
 number of electron     602.0000008 magnetization      81.9189115
 augmentation part      602.0000008 magnetization      81.9189115

 DIPCOR: dipole corrections for dipol
 direction  3 min pos   237,
 dipolmoment           0.000000      0.000000     -0.004011 electrons x Angstroem
 Tr[quadrupol]     -9834.938822

 energy correction for charged system         0.000000 eV
 dipol+quadrupol energy correction           -0.000001 eV
 added-field ion interaction          0.014859 eV  (added to PSCEN)


 Free energy of the ion-electron system (eV)
  ---------------------------------------------------
  alpha Z        PSCENC =      1281.22551652
  Ewald energy   TEWEN  =    214108.57347568
  -Hartree energ DENC   =   -272556.95618574
  -exchange      EXHF   =         0.00000000
  -V(xc)+E(xc)   XCENC  =      1461.40382402
  PAW double counting   =     63746.80906999   -66999.32673687
  entropy T*S    EENTRO =         0.00000000
  eigenvalues    EBANDS =     -1211.80537926
  atomic energy  EATOM  =     59787.13230648
  Solvation  Ediel_sol  =         0.00000000
  ---------------------------------------------------
  free energy    TOTEN  =      -382.94410918 eV

  energy without entropy =     -382.94410918  energy(sigma->0) =     -382.94410918


--------------------------------------------------------------------------------------------------------




--------------------------------------- Iteration      1(   9)  ---------------------------------------


    EDDIAG:  cpu time   14.8347: real time   14.8653
  RMM-DIIS:  cpu time   66.8288: real time   67.1306
    ORTHCH:  cpu time    2.5766: real time    2.5922
 BZINTS: Fermi energy:  0.247962;602.000000 electrons
         Band energy:***********;  BLOECHL correction: -0.123965
       DOS:  cpu time    0.1880: real time    0.1880
    --------------------------------------------
      LOOP:  cpu time   84.4282: real time   84.7762

 eigenvalue-minimisations  : 36995
 total energy-change (2. order) :-0.2100947E-04  (-0.2055941E-04)
 number of electron     602.0000008 magnetization      81.9189115
 augmentation part      602.0000008 magnetization      81.9189115

 DIPCOR: dipole corrections for dipol
 direction  3 min pos   237,
 dipolmoment           0.000000      0.000000     -0.004011 electrons x Angstroem
 Tr[quadrupol]     -9834.938822

 energy correction for charged system         0.000000 eV
 dipol+quadrupol energy correction           -0.000001 eV
 added-field ion interaction          0.014859 eV  (added to PSCEN)


 Free energy of the ion-electron system (eV)
  ---------------------------------------------------
  alpha Z        PSCENC =      1281.22551652
  Ewald energy   TEWEN  =    214108.57347568
  -Hartree energ DENC   =   -272556.95618574
  -exchange      EXHF   =         0.00000000
  -V(xc)+E(xc)   XCENC  =      1461.40382402
  PAW double counting   =     63746.80906999   -66999.32673687
  entropy T*S    EENTRO =         0.00000000
  eigenvalues    EBANDS =     -1211.80540027
  atomic energy  EATOM  =     59787.13230648
  Solvation  Ediel_sol  =         0.00000000
  ---------------------------------------------------
  free energy    TOTEN  =      -382.94413019 eV

  energy without entropy =     -382.94413019  energy(sigma->0) =     -382.94413019


--------------------------------------------------------------------------------------------------------




--------------------------------------- Iteration      1(  10)  ---------------------------------------


    EDDIAG:  cpu time   14.7188: real time   14.7605
  RMM-DIIS:  cpu time   44.6122: real time   44.7422
    ORTHCH:  cpu time    2.6386: real time    2.6430
 BZINTS: Fermi energy:  0.247962;602.000000 electrons
         Band energy:***********;  BLOECHL correction: -0.123965
       DOS:  cpu time    0.1870: real time    0.1872
    --------------------------------------------
      LOOP:  cpu time   62.1566: real time   62.3329

 eigenvalue-minimisations  : 23580
 total energy-change (2. order) :-0.2110610E-05  (-0.1779515E-05)
 number of electron     602.0000008 magnetization      81.9189115
 augmentation part      602.0000008 magnetization      81.9189115

 DIPCOR: dipole corrections for dipol
 direction  3 min pos   237,
 dipolmoment           0.000000      0.000000     -0.004011 electrons x Angstroem
 Tr[quadrupol]     -9834.938822

 energy correction for charged system         0.000000 eV
 dipol+quadrupol energy correction           -0.000001 eV
 added-field ion interaction          0.014859 eV  (added to PSCEN)


 Free energy of the ion-electron system (eV)
  ---------------------------------------------------
  alpha Z        PSCENC =      1281.22551652
  Ewald energy   TEWEN  =    214108.57347568
  -Hartree energ DENC   =   -272556.95618574
  -exchange      EXHF   =         0.00000000
  -V(xc)+E(xc)   XCENC  =      1461.40382402
  PAW double counting   =     63746.80906999   -66999.32673687
  entropy T*S    EENTRO =         0.00000000
  eigenvalues    EBANDS =     -1211.80540238
  atomic energy  EATOM  =     59787.13230648
  Solvation  Ediel_sol  =         0.00000000
  ---------------------------------------------------
  free energy    TOTEN  =      -382.94413230 eV

  energy without entropy =     -382.94413230  energy(sigma->0) =     -382.94413230


--------------------------------------------------------------------------------------------------------




--------------------------------------- Iteration      1(  11)  ---------------------------------------


    EDDIAG:  cpu time   14.7368: real time   14.7755
  RMM-DIIS:  cpu time   40.7758: real time   40.9560
    ORTHCH:  cpu time    2.6466: real time    2.6516
 BZINTS: Fermi energy:  0.247962;602.000000 electrons
         Band energy:***********;  BLOECHL correction: -0.123965
       DOS:  cpu time    0.1790: real time    0.1791
    --------------------------------------------
      LOOP:  cpu time   58.3391: real time   58.5622

 eigenvalue-minimisations  : 21411
 total energy-change (2. order) :-0.6576884E-06  (-0.6125504E-06)
 number of electron     602.0000008 magnetization      81.9189115
 augmentation part      602.0000008 magnetization      81.9189115

 DIPCOR: dipole corrections for dipol
 direction  3 min pos   237,
 dipolmoment           0.000000      0.000000     -0.004011 electrons x Angstroem
 Tr[quadrupol]     -9834.938822

 energy correction for charged system         0.000000 eV
 dipol+quadrupol energy correction           -0.000001 eV
 added-field ion interaction          0.014859 eV  (added to PSCEN)


 Free energy of the ion-electron system (eV)
  ---------------------------------------------------
  alpha Z        PSCENC =      1281.22551652
  Ewald energy   TEWEN  =    214108.57347568
  -Hartree energ DENC   =   -272556.95618574
  -exchange      EXHF   =         0.00000000
  -V(xc)+E(xc)   XCENC  =      1461.40382402
  PAW double counting   =     63746.80906999   -66999.32673687
  entropy T*S    EENTRO =         0.00000000
  eigenvalues    EBANDS =     -1211.80540304
  atomic energy  EATOM  =     59787.13230648
  Solvation  Ediel_sol  =         0.00000000
  ---------------------------------------------------
  free energy    TOTEN  =      -382.94413296 eV

  energy without entropy =     -382.94413296  energy(sigma->0) =     -382.94413296


--------------------------------------------------------------------------------------------------------




 average (electrostatic) potential at core
  the test charge radii are     0.9791  1.0103
  (the norm of the test charge is              1.0000)
       1 -91.0923       2 -91.1093       3 -91.0806       4 -91.0304       5 -91.1242
       6 -91.1508       7 -91.1042       8 -91.1559       9 -91.1777      10 -91.1311
      11 -91.1428      12 -91.1121      13 -90.9025      14 -90.9530      15 -90.8147
      16 -90.8941      17 -91.1742      18 -91.1805      19 -90.9377      20 -90.9777
      21 -91.1398      22 -91.1759      23 -91.0733      24 -91.1718      25 -91.0773
      26 -91.0630      27 -91.0949      28 -91.1626      29 -91.1221      30 -90.9444
      31 -90.9281      32 -91.0839      33 -90.9558      34 -90.9728      35 -91.0736
      36 -91.0652      37 -90.9317      38 -90.9124      39 -90.8690      40 -90.8983
      41 -91.0487      42 -90.8705      43 -90.9133      44 -90.8734      45 -90.9017
      46 -49.4214      47 -49.3747      48 -49.3136      49 -49.2721      50 -49.2896
      51 -49.2182      52 -49.2900      53 -49.1220      54 -49.1175      55 -49.3228
      56 -49.1920      57 -49.1353      58 -49.3411      59 -49.2832      60 -49.3928
      61 -49.4165      62 -49.3457      63 -49.3483      64 -49.4673
 
 
 
 E-fermi :   0.2480     XC(G=0):  -5.9702     alpha+bet : -5.9500


 spin component 1

 k-point     1 :       0.0000    0.0000    0.0000
  band No.  band energies     occupation 
      1      -8.2226      1.00000
      2      -6.9360      1.00000
      3      -6.3228      1.00000
      4      -6.3183      1.00000
      5      -6.3104      1.00000
      6      -6.3085      1.00000
      7      -6.2911      1.00000
      8      -6.2628      1.00000
      9      -5.4018      1.00000
     10      -5.2758      1.00000
     11      -5.2717      1.00000
     12      -5.2545      1.00000
     13      -5.2443      1.00000
     14      -5.2280      1.00000
     15      -5.2016      1.00000
     16      -4.7637      1.00000
     17      -4.5212      1.00000
     18      -4.5057      1.00000
     19      -4.4755      1.00000
     20      -4.4549      1.00000
     21      -4.4241      1.00000
     22      -4.3947      1.00000
     23      -4.1954      1.00000
     24      -4.1665      1.00000
     25      -4.1641      1.00000
     26      -4.1399      1.00000
     27      -4.1309      1.00000
     28      -4.1089      1.00000
     29      -4.0971      1.00000
     30      -4.0879      1.00000
     31      -4.0708      1.00000
     32      -4.0619      1.00000
     33      -4.0472      1.00000
     34      -4.0323      1.00000
     35      -4.0294      1.00000
     36      -4.0091      1.00000
     37      -3.9940      1.00000
     38      -3.9912      1.00000
     39      -3.9772      1.00000
     40      -3.9631      1.00000
     41      -3.9570      1.00000
     42      -3.9477      1.00000
     43      -3.9260      1.00000
     44      -3.9245      1.00000
     45      -3.9110      1.00000
     46      -3.8766      1.00000
     47      -3.8567      1.00000
     48      -3.8400      1.00000
     49      -3.8165      1.00000
     50      -3.7796      1.00000
     51      -3.7609      1.00000
     52      -3.7422      1.00000
     53      -3.7349      1.00000
     54      -3.7327      1.00000
     55      -3.7258      1.00000
     56      -3.7060      1.00000
     57      -3.6769      1.00000
     58      -3.6733      1.00000
     59      -3.6541      1.00000
     60      -3.6346      1.00000
     61      -3.6176      1.00000
     62      -3.5817      1.00000
     63      -3.5455      1.00000
     64      -3.4744      1.00000
     65      -3.4451      1.00000
     66      -3.4343      1.00000
     67      -3.4141      1.00000
     68      -3.3910      1.00000
     69      -3.3776      1.00000
     70      -3.3735      1.00000
     71      -3.3529      1.00000
     72      -3.3372      1.00000
     73      -3.3161      1.00000
     74      -3.3132      1.00000
     75      -3.2833      1.00000
     76      -3.2762      1.00000
     77      -3.2720      1.00000
     78      -3.2557      1.00000
     79      -3.2248      1.00000
     80      -3.2021      1.00000
     81      -3.1791      1.00000
     82      -3.1734      1.00000
     83      -3.1396      1.00000
     84      -3.1279      1.00000
     85      -3.1166      1.00000
     86      -3.0973      1.00000
     87      -3.0886      1.00000
     88      -3.0595      1.00000
     89      -3.0443      1.00000
     90      -3.0309      1.00000
     91      -3.0149      1.00000
     92      -2.9922      1.00000
     93      -2.9864      1.00000
     94      -2.9711      1.00000
     95      -2.9649      1.00000
     96      -2.9474      1.00000
     97      -2.9438      1.00000
     98      -2.9327      1.00000
     99      -2.9141      1.00000
    100      -2.9016      1.00000
    101      -2.8742      1.00000
    102      -2.8590      1.00000
    103      -2.8457      1.00000
    104      -2.8202      1.00000
    105      -2.8171      1.00000
    106      -2.8025      1.00000
    107      -2.7681      1.00000
    108      -2.7601      1.00000
    109      -2.7271      1.00000
    110      -2.7160      1.00000
    111      -2.7104      1.00000
    112      -2.6974      1.00000
    113      -2.6661      1.00000
    114      -2.6581      1.00000
    115      -2.6329      1.00000
    116      -2.6145      1.00000
    117      -2.6053      1.00000
    118      -2.5947      1.00000
    119      -2.5816      1.00000
    120      -2.5591      1.00000
    121      -2.5450      1.00000
    122      -2.5306      1.00000
    123      -2.5267      1.00000
    124      -2.5126      1.00000
    125      -2.5006      1.00000
    126      -2.4994      1.00000
    127      -2.4829      1.00000
    128      -2.4709      1.00000
    129      -2.4621      1.00000
    130      -2.4496      1.00000
    131      -2.4381      1.00000
    132      -2.4289      1.00000
    133      -2.4162      1.00000
    134      -2.4005      1.00000
    135      -2.3812      1.00000
    136      -2.3773      1.00000
    137      -2.3664      1.00000
    138      -2.3513      1.00000
    139      -2.3414      1.00000
    140      -2.3264      1.00000
    141      -2.3178      1.00000
    142      -2.3149      1.00000
    143      -2.3078      1.00000
    144      -2.2940      1.00000
    145      -2.2831      1.00000
    146      -2.2757      1.00000
    147      -2.2603      1.00000
    148      -2.2572      1.00000
    149      -2.2473      1.00000
    150      -2.2406      1.00000
    151      -2.2337      1.00000
    152      -2.2231      1.00000
    153      -2.2097      1.00000
    154      -2.2020      1.00000
    155      -2.1966      1.00000
    156      -2.1857      1.00000
    157      -2.1779      1.00000
    158      -2.1705      1.00000
    159      -2.1505      1.00000
    160      -2.1481      1.00000
    161      -2.1402      1.00000
    162      -2.1207      1.00000
    163      -2.1171      1.00000
    164      -2.1093      1.00000
    165      -2.1052      1.00000
    166      -2.0990      1.00000
    167      -2.0827      1.00000
    168      -2.0805      1.00000
    169      -2.0723      1.00000
    170      -2.0559      1.00000
    171      -2.0459      1.00000
    172      -2.0351      1.00000
    173      -2.0332      1.00000
    174      -2.0186      1.00000
    175      -2.0169      1.00000
    176      -2.0091      1.00000
    177      -1.9913      1.00000
    178      -1.9852      1.00000
    179      -1.9712      1.00000
    180      -1.9681      1.00000
    181      -1.9576      1.00000
    182      -1.9428      1.00000
    183      -1.9380      1.00000
    184      -1.9330      1.00000
    185      -1.9218      1.00000
    186      -1.9066      1.00000
    187      -1.9026      1.00000
    188      -1.8894      1.00000
    189      -1.8874      1.00000
    190      -1.8767      1.00000
    191      -1.8692      1.00000
    192      -1.8608      1.00000
    193      -1.8557      1.00000
    194      -1.8512      1.00000
    195      -1.8462      1.00000
    196      -1.8435      1.00000
    197      -1.8263      1.00000
    198      -1.8187      1.00000
    199      -1.8042      1.00000
    200      -1.8032      1.00000
    201      -1.7853      1.00000
    202      -1.7078      1.00000
    203      -1.6903      1.00000
    204      -1.6750      1.00000
    205      -1.6470      1.00000
    206      -1.6387      1.00000
    207      -1.6265      1.00000
    208      -1.6196      1.00000
    209      -1.5950      1.00000
    210      -1.5912      1.00000
    211      -1.5758      1.00000
    212      -1.5714      1.00000
    213      -1.5560      1.00000
    214      -1.5390      1.00000
    215      -1.5258      1.00000
    216      -1.5137      1.00000
    217      -1.5066      1.00000
    218      -1.5001      1.00000
    219      -1.4852      1.00000
    220      -1.4687      1.00000
    221      -1.4462      1.00000
    222      -1.4370      1.00000
    223      -1.4219      1.00000
    224      -1.4093      1.00000
    225      -1.3999      1.00000
    226      -1.3835      1.00000
    227      -1.3758      1.00000
    228      -1.3692      1.00000
    229      -1.3651      1.00000
    230      -1.3508      1.00000
    231      -1.3380      1.00000
    232      -1.3222      1.00000
    233      -1.2991      1.00000
    234      -1.2790      1.00000
    235      -1.2753      1.00000
    236      -1.2562      1.00000
    237      -1.2519      1.00000
    238      -1.2430      1.00000
    239      -1.2343      1.00000
    240      -1.2203      1.00000
    241      -1.2198      1.00000
    242      -1.2140      1.00000
    243      -1.2053      1.00000
    244      -1.1923      1.00000
    245      -1.1828      1.00000
    246      -1.1778      1.00000
    247      -1.1643      1.00000
    248      -1.1630      1.00000
    249      -1.1494      1.00000
    250      -1.1419      1.00000
    251      -1.1398      1.00000
    252      -1.1286      1.00000
    253      -1.1225      1.00000
    254      -1.1165      1.00000
    255      -1.1080      1.00000
    256      -1.1032      1.00000
    257      -1.1012      1.00000
    258      -1.0862      1.00000
    259      -1.0769      1.00000
    260      -1.0693      1.00000
    261      -1.0655      1.00000
    262      -1.0581      1.00000
    263      -1.0490      1.00000
    264      -1.0430      1.00000
    265      -1.0363      1.00000
    266      -1.0214      1.00000
    267      -1.0157      1.00000
    268      -1.0076      1.00000
    269      -0.9875      1.00000
    270      -0.9775      1.00000
    271      -0.9749      1.00000
    272      -0.9695      1.00000
    273      -0.9607      1.00000
    274      -0.9521      1.00000
    275      -0.9462      1.00000
    276      -0.9439      1.00000
    277      -0.9207      1.00000
    278      -0.9093      1.00000
    279      -0.9051      1.00000
    280      -0.8974      1.00000
    281      -0.8903      1.00000
    282      -0.8754      1.00000
    283      -0.8514      1.00000
    284      -0.8078      1.00000
    285      -0.7877      1.00000
    286      -0.7755      1.00000
    287      -0.7610      1.00000
    288      -0.7420      1.00000
    289      -0.7243      1.00000
    290      -0.7136      1.00000
    291      -0.7052      1.00000
    292      -0.6872      1.00000
    293      -0.6726      1.00000
    294      -0.6617      1.00000
    295      -0.6208      1.00000
    296      -0.5988      1.00000
    297      -0.5812      1.00000
    298      -0.5732      1.00000
    299      -0.5713      1.00000
    300      -0.5590      1.00000
    301      -0.5518      1.00000
    302      -0.5454      1.00000
    303      -0.5288      1.00000
    304      -0.5162      1.00000
    305      -0.5106      1.00000
    306      -0.5087      1.00000
    307      -0.4746      1.00000
    308      -0.4693      1.00000
    309      -0.4609      1.00000
    310      -0.4416      1.00000
    311      -0.4370      1.00000
    312      -0.4308      1.00000
    313      -0.4219      1.00000
    314      -0.4162      1.00000
    315      -0.4100      1.00000
    316      -0.4060      1.00000
    317      -0.4025      1.00000
    318      -0.3981      1.00000
    319      -0.3950      1.00000
    320      -0.3931      1.00000
    321      -0.3755      1.00000
    322      -0.3523      1.00000
    323      -0.3331      1.00000
    324      -0.3209      1.00000
    325      -0.3179      1.00000
    326      -0.3134      1.00000
    327      -0.3087      1.00000
    328      -0.2938      1.00000
    329      -0.2907      1.00000
    330      -0.2742      1.00000
    331      -0.2513      1.00000
    332      -0.2451      1.00000
    333      -0.2310      1.00000
    334      -0.2161      1.00000
    335      -0.2087      1.00000
    336      -0.1893      1.00000
    337      -0.0122      1.00000
    338       0.0207      1.00000
    339       0.0277      1.00000
    340       0.0671      1.00000
    341       0.0849      0.92871
    342       0.1024      0.79912
    343       0.3692      0.00000
    344       0.8025      0.00000
    345       0.8097      0.00000
    346       0.8179      0.00000
    347       1.2837      0.00000
    348       1.2878      0.00000
    349       1.3076      0.00000
    350       1.3180      0.00000
    351       1.3229      0.00000
    352       1.3465      0.00000
    353       1.8585      0.00000
    354       1.8799      0.00000
    355       1.8848      0.00000
    356       1.9093      0.00000
    357       1.9151      0.00000
    358       1.9254      0.00000
    359       1.9428      0.00000
    360       1.9571      0.00000
    361       1.9758      0.00000
    362       1.9988      0.00000
    363       2.0183      0.00000
    364       2.0258      0.00000
    365       2.0558      0.00000
    366       2.0710      0.00000
    367       2.0979      0.00000
    368       2.6742      0.00000
    369       2.6950      0.00000
    370       2.7273      0.00000
    371       2.7993      0.00000
    372       2.8149      0.00000
    373       2.8278      0.00000
    374       3.2789      0.00000
    375       3.2985      0.00000
    376       3.3123      0.00000
    377       3.3398      0.00000
    378       3.3493      0.00000
    379       3.3812      0.00000
    380       3.7797      0.00000
    381       3.8190      0.00000
    382       3.8570      0.00000
    383       3.9177      0.00000
    384       3.9423      0.00000
    385       3.9877      0.00000
    386       4.8801      0.00000
    387       4.9272      0.00000
    388       5.3872      0.00000
    389       5.4544      0.00000
    390       5.4812      0.00000
    391       5.5118      0.00000
    392       5.5213      0.00000
    393       5.5508      0.00000
    394       6.2541      0.00000
    395       6.2656      0.00000
    396       6.2888      0.00000
    397       6.3297      0.00000
    398       6.5954      0.00000
    399       6.6221      0.00000
    400       6.6513      0.00000
[...]
   -.249E+02 0.413E+02 0.103E+04   0.250E+02 -.415E+02 -.103E+04   0.590E-02 -.866E-01 -.317E+00   -.955E-01 0.178E+00 0.151E+01
   -.133E+02 -.172E+02 -.102E+04   0.134E+02 0.175E+02 0.102E+04   -.429E-02 -.344E-01 0.394E+00   -.869E-03 -.201E+00 -.366E+00
   -.334E+02 -.403E+02 0.289E+04   0.334E+02 0.403E+02 -.289E+04   -.122E+00 -.137E+00 -.512E+00   0.219E-01 0.247E+00 0.648E+00
   -.341E+02 -.317E+02 -.291E+04   0.342E+02 0.319E+02 0.291E+04   -.192E+00 -.119E+00 0.334E+00   0.139E+00 -.103E+00 -.584E+00
   0.515E+02 0.668E+02 0.103E+04   -.515E+02 -.671E+02 -.103E+04   0.924E-02 -.106E+00 -.353E+00   -.869E-01 0.271E+00 0.198E+01
   0.305E+02 0.239E+02 -.106E+04   -.305E+02 -.240E+02 0.106E+04   0.103E+00 0.406E-01 0.150E+00   -.394E-01 0.117E-01 -.455E+00
   -.747E+01 0.408E+02 0.101E+04   0.765E+01 -.409E+02 -.101E+04   0.266E-02 -.195E-01 -.237E+00   -.210E+00 0.171E+00 0.189E+01
   -.354E+02 0.550E+02 0.102E+04   0.355E+02 -.552E+02 -.102E+04   0.284E-01 -.415E-03 -.444E+00   -.291E-01 0.138E+00 0.152E+01
   -.140E+02 0.756E+02 -.992E+03   0.143E+02 -.759E+02 0.992E+03   0.297E-01 -.979E-01 0.310E+00   -.337E+00 0.383E+00 -.298E+00
   0.658E+01 0.941E+02 0.970E+03   -.677E+01 -.942E+02 -.972E+03   0.346E-01 -.200E-01 -.243E+00   0.175E+00 0.479E-01 0.159E+01
   -.353E+02 0.654E+02 -.955E+03   0.353E+02 -.656E+02 0.955E+03   -.267E-01 -.362E-03 0.365E+00   0.240E-01 0.204E+00 -.413E+00
   0.351E+02 0.904E+02 0.100E+04   -.352E+02 -.905E+02 -.100E+04   -.574E-01 -.584E-01 -.427E+00   0.558E-01 0.157E+00 0.202E+01
   0.331E+02 0.905E+02 -.959E+03   -.336E+02 -.907E+02 0.959E+03   0.448E-01 -.488E-01 0.369E+00   0.430E+00 0.216E+00 -.534E+00
   -.251E+02 0.938E+02 0.288E+04   0.255E+02 -.943E+02 -.288E+04   -.113E+00 0.485E+00 -.101E+01   -.234E+00 0.982E-01 0.670E+00
   -.122E+02 0.759E+02 -.289E+04   0.123E+02 -.760E+02 0.289E+04   -.100E+00 0.205E+00 0.631E+00   0.660E-01 -.599E-01 -.488E+00
   0.149E+02 0.969E+02 -.995E+03   -.147E+02 -.972E+02 0.995E+03   -.444E-01 -.145E+00 0.410E+00   -.106E+00 0.419E+00 -.472E+00
   0.552E+01 0.940E+02 0.295E+04   -.572E+01 -.948E+02 -.295E+04   0.137E-01 0.609E+00 -.420E+00   0.186E+00 0.270E+00 0.648E+00
   -.332E+01 0.102E+03 -.291E+04   0.335E+01 -.103E+03 0.291E+04   -.307E-01 0.541E+00 0.309E+00   -.226E-02 0.280E+00 -.657E+00
   -.241E+02 -.342E+02 -.997E+03   0.244E+02 0.341E+02 0.997E+03   0.333E-01 0.859E-01 0.328E+00   -.236E+00 0.318E-01 -.333E+00
   -.317E+02 -.325E+02 -.101E+04   0.320E+02 0.324E+02 0.101E+04   -.690E-02 -.248E-01 0.348E+00   -.374E+00 0.156E+00 -.277E+00
   -.226E+02 -.282E+02 0.295E+04   0.226E+02 0.286E+02 -.295E+04   -.123E+00 -.223E+00 -.613E+00   -.243E-01 -.194E+00 0.673E+00
   -.253E+02 -.119E+02 -.294E+04   0.255E+02 0.119E+02 0.294E+04   -.462E-01 -.108E+00 0.641E+00   -.147E+00 0.141E+00 -.803E+00
   0.314E+02 0.104E+02 0.293E+04   -.314E+02 -.103E+02 -.293E+04   0.712E-01 -.456E-01 -.101E+01   -.199E-02 -.185E+00 0.631E+00
   0.306E+02 0.826E+01 -.292E+04   -.303E+02 -.836E+01 0.292E+04   -.512E-01 -.143E-01 0.108E+01   -.165E+00 0.109E+00 -.481E+00
   0.334E+02 0.893E+01 -.986E+03   -.337E+02 -.877E+01 0.987E+03   -.139E-01 -.365E-01 0.222E+00   0.324E+00 -.102E+00 -.465E+00
   -.303E+01 0.489E+02 0.293E+04   0.316E+01 -.488E+02 -.293E+04   -.150E-01 -.963E-01 -.120E+01   -.114E+00 -.341E-01 0.761E+00
   0.124E+02 0.447E+02 -.293E+04   -.128E+02 -.447E+02 0.293E+04   0.849E-01 -.357E-02 0.126E+01   0.245E+00 0.568E-01 -.766E+00
   -.539E+01 0.159E+02 0.294E+04   0.527E+01 -.158E+02 -.294E+04   0.558E-01 -.104E+00 -.851E+00   0.138E+00 -.863E-01 0.724E+00
   -.177E+02 0.267E+02 -.294E+04   0.176E+02 -.268E+02 0.295E+04   -.784E-02 0.692E-01 0.950E+00   0.866E-01 0.311E-01 -.993E+00
   -.671E+02 -.654E+02 0.236E+04   0.674E+02 0.658E+02 -.236E+04   -.336E+00 -.384E+00 -.249E+01   -.483E-01 -.123E+00 0.580E+00
   -.673E+02 -.595E+02 -.237E+04   0.676E+02 0.599E+02 0.236E+04   -.397E+00 -.264E+00 0.219E+01   0.748E-01 -.130E+00 -.801E+00
   0.372E+02 -.899E+02 0.235E+04   -.375E+02 0.906E+02 -.235E+04   0.282E+00 -.636E+00 -.208E+01   -.683E-02 -.158E+00 0.519E+00
   0.320E+02 -.786E+02 -.236E+04   -.322E+02 0.792E+02 0.236E+04   0.377E+00 -.561E+00 0.196E+01   -.176E+00 -.607E-01 -.663E+00
   -.531E+02 0.217E+02 0.793E+03   0.531E+02 -.216E+02 -.794E+03   -.103E+00 -.138E+00 -.338E+00   0.948E-01 0.120E-01 0.111E+01
   0.382E+02 0.596E+02 0.803E+03   -.383E+02 -.598E+02 -.805E+03   0.260E-01 0.756E-01 -.151E+00   0.621E-01 0.967E-01 0.142E+01
   -.329E+02 -.900E+00 -.788E+03   0.328E+02 0.121E+01 0.788E+03   -.122E+00 -.349E-01 0.256E+00   0.189E+00 -.250E+00 -.317E+00
   -.385E+02 -.253E+01 0.231E+04   0.392E+02 0.222E+01 -.231E+04   -.641E+00 0.328E+00 -.225E+01   -.127E+00 0.501E-01 0.591E+00
   -.264E+02 0.112E+02 -.236E+04   0.270E+02 -.115E+02 0.236E+04   -.596E+00 0.343E+00 0.246E+01   -.244E-01 -.126E+00 -.553E+00
   0.156E+02 0.261E+02 -.841E+03   -.154E+02 -.265E+02 0.841E+03   -.184E-01 0.284E+00 -.139E+00   -.155E+00 0.116E+00 -.301E+00
   0.518E+02 -.114E+02 0.232E+04   -.522E+02 0.114E+02 -.232E+04   0.416E+00 0.130E+00 -.188E+01   -.498E-01 0.663E-01 0.653E+00
   0.247E+02 -.166E+02 -.236E+04   -.249E+02 0.167E+02 0.236E+04   0.414E+00 -.450E-01 0.268E+01   -.167E+00 -.105E-01 -.533E+00
   0.183E+02 -.517E+02 0.233E+04   -.185E+02 0.517E+02 -.233E+04   0.131E+00 -.128E+00 -.224E+01   0.168E+00 0.168E+00 0.572E+00
   0.353E+02 -.630E+02 -.236E+04   -.356E+02 0.631E+02 0.236E+04   0.229E+00 -.120E+00 0.299E+01   0.656E-01 0.502E-01 -.501E+00
   -.519E+01 0.624E+02 0.235E+04   0.523E+01 -.626E+02 -.235E+04   -.372E-01 0.245E+00 -.281E+01   0.353E-01 0.601E-01 0.431E+00
   0.130E+02 0.451E+02 -.234E+04   -.130E+02 -.453E+02 0.234E+04   0.724E-01 0.869E-01 0.263E+01   -.114E+00 0.657E-01 -.387E+00
   0.183E+02 0.107E+03 0.235E+04   -.185E+02 -.108E+03 -.234E+04   0.158E+00 0.572E+00 -.274E+01   -.118E-02 0.200E+00 0.567E+00
   -.557E+00 0.940E+02 -.234E+04   0.429E+00 -.946E+02 0.234E+04   0.604E-01 0.492E+00 0.203E+01   0.710E-01 0.132E+00 -.728E+00
   0.188E+02 -.151E+01 -.789E+03   -.190E+02 0.139E+01 0.789E+03   -.773E-01 0.707E-01 0.175E+00   0.209E+00 0.409E-01 -.410E+00
 -----------------------------------------------------------------------------------------------
   0.271E+00 -.349E+00 -.211E+02   0.558E-12 -.838E-12 0.108E-10   -.231E+00 0.469E+00 -.592E+00   -.465E-01 -.114E+00 0.217E+02
 
 
 POSITION                                       TOTAL-FORCE (eV/Angst)
 -----------------------------------------------------------------------------------
      0.00265      0.00460      4.10930         0.057527      0.040214     -0.174577
      2.50538      0.00249      4.09112         0.017771      0.099393     -0.204051
     -0.00053      8.67545      4.10650        -0.031452      0.103639     -0.161813
      2.50374      8.67643      4.10823         0.027587      0.030624     -0.114880
      8.76727      2.15790      4.10604         0.066919      0.030107     -0.269854
      1.25353      2.17274      4.09844         0.061442      0.002370     -0.109607
     -0.00009      1.44787      6.15452         0.010386     -0.003639      0.019886
      3.77193      2.16142      4.10792        -0.006442      0.002221     -0.106640
      2.49822      1.44772      6.16141         0.013441     -0.005546      0.036034
      6.27168      2.17140      4.12544        -0.031388     -0.047888     -0.271901
      4.99643      1.45448      6.17805         0.027879     -0.002280      0.039156
      7.51952      1.45440      6.15297        -0.021836      0.012736      0.014153
      6.25724      0.72120      2.06579         0.027105     -0.036348      0.210827
      6.26138      0.72438      8.17338        -0.007460     -0.001103      0.012088
      8.77725      0.71231      2.05449        -0.073751     -0.056460      0.277495
      8.76760      0.69417      8.13660         0.002852      0.007662      0.024283
     -2.49068      4.34584      4.07658         0.020550     -0.065863     -0.176514
     -1.28085      3.62163      6.15538        -0.000045     -0.007421      0.020528
     -0.00860      2.89985      2.05504        -0.092855      0.040077      0.257196
      0.00378      2.89635      8.14449         0.000888      0.000309      0.011534
      5.02108      4.35795      4.08118        -0.049760     -0.109094     -0.156315
      3.76768      3.61754      6.17002         0.013552     -0.004049      0.017124
     -3.75488      6.52259      4.08281        -0.032492      0.028156     -0.357084
     -1.25738      6.50265      4.07876         0.109485     -0.029798     -0.330029
     -2.50236      5.79724      6.11504         0.011884     -0.003331      0.014860
      1.25473      6.50540      4.08192         0.019747     -0.039788     -0.228883
     -0.01061      5.77913      6.11770         0.007816     -0.002811      0.033773
      3.76821      6.52071      4.09871        -0.088942     -0.017204     -0.313010
      2.50687      5.78512      6.12437        -0.009696     -0.025876      0.016939
      1.25945      5.05378      2.02837         0.073105      0.027786      0.235784
      1.28395      5.05908      8.13182         0.005449      0.011319      0.012996
      5.01850      5.78882      6.12520         0.009146     -0.007839      0.030341
      6.27138      5.06452      2.02789         0.003804      0.011651      0.344314
      6.27640      5.06536      8.12130        -0.002936      0.001907      0.034644
     -3.75860      7.96831      6.12216         0.003889     -0.017131      0.018506
     -1.24378      7.96301      6.14074        -0.013144     -0.013179      0.002859
     -2.51584      7.25277      2.04000        -0.119562     -0.008561      0.270512
     -2.51982      7.26025      8.10478        -0.002727     -0.009348      0.030158
      0.00963      7.22591      2.05468         0.037712     -0.072565      0.245772
      0.02578      7.23010      8.14660         0.021863      0.001336      0.019814
      3.75071      7.96102      6.14361        -0.008928      0.026063      0.034440
      2.50222      7.23652      2.06066        -0.000427     -0.006564      0.246390
      2.49741      7.25499      8.15115        -0.003389      0.000947      0.023074
      5.01801      7.23500      2.05687         0.074746     -0.040469      0.282717
      5.01087      7.23684      8.11686         0.003420      0.002389      0.010059
      1.20950      0.71304      2.03874        -0.047045     -0.087860      0.147413
      1.20669      0.70941      8.15134         0.003260     -0.004763      0.006685
      3.78049      0.67792      2.04862        -0.072517     -0.045721      0.195289
      3.77979      0.66848      8.15895        -0.001126     -0.007339     -0.005979
     -0.01227      4.33343      4.09239        -0.023065     -0.042422     -0.292216
      2.55867      4.36425      4.10816         0.000116     -0.042489     -0.257056
      1.25179      3.61165      6.17999        -0.011668      0.027037      0.046202
      2.51334      2.87806      2.06450        -0.051824      0.072590     -0.076294
      2.54536      2.88212      8.24309        -0.011489     -0.014203      0.010650
      6.25981      3.62739      6.14423         0.000982     -0.001276      0.040893
      5.02463      2.88643      2.10334        -0.095553      0.147044      0.009312
      5.02383      2.89744      8.23981         0.018658     -0.001033     -0.003042
      7.52997      2.83909      2.09508         0.131692      0.017499      0.043632
      7.54539      2.83389      8.20619        -0.014482      0.006319     -0.003328
     -1.25360      5.10876      2.00000         0.040773      0.037780      0.068437
     -1.24042      5.09631      8.12845         0.010461     -0.014910      0.003046
      3.75975      5.11705      2.00810        -0.009598      0.098005      0.136770
      3.76393      5.12546      8.13124         0.003372      0.014687      0.015047
      1.25259      7.95599      6.14566        -0.003681     -0.005700      0.041441
 -----------------------------------------------------------------------------------
    total drift:                               -0.006051      0.006430     -0.034531


--------------------------------------------------------------------------------------------------------



  FREE ENERGIE OF THE ION-ELECTRON SYSTEM (eV)
  ---------------------------------------------------
  free  energy   TOTEN  =      -382.94413296 eV

  energy  without entropy=     -382.94413296  energy(sigma->0) =     -382.94413296
 


--------------------------------------------------------------------------------------------------------


    POTLOK:  cpu time    0.2660: real time    0.2655


--------------------------------------------------------------------------------------------------------


     LOOP+:  cpu time 1106.0459: real time 1111.0400
    4ORBIT:  cpu time    0.0000: real time    0.0000
 


 total charge     
 
# of ion       s       p       d       tot
------------------------------------------
    1        0.491   0.487   8.314   9.291
    2        0.492   0.488   8.315   9.295
    3        0.493   0.485   8.324   9.302
    4        0.488   0.480   8.319   9.286
    5        0.494   0.492   8.317   9.303
    6        0.501   0.500   8.313   9.314
    7        0.498   0.500   8.317   9.314
    8        0.499   0.500   8.311   9.310
    9        0.500   0.505   8.303   9.309
   10        0.499   0.500   8.324   9.323
   11        0.502   0.505   8.317   9.324
   12        0.500   0.504   8.315   9.319
   13        0.502   0.390   8.321   9.213
   14        0.508   0.407   8.324   9.239
   15        0.493   0.383   8.334   9.210
   16        0.502   0.404   8.333   9.239
   17        0.499   0.501   8.320   9.320
   18        0.507   0.514   8.321   9.343
   19        0.503   0.403   8.316   9.223
   20        0.511   0.412   8.322   9.244
   21        0.500   0.501   8.318   9.319
   22        0.508   0.514   8.313   9.335
   23        0.486   0.477   8.311   9.274
   24        0.495   0.493   8.311   9.299
   25        0.498   0.500   8.324   9.323
   26        0.494   0.491   8.317   9.302
   27        0.502   0.509   8.333   9.344
   28        0.496   0.497   8.313   9.306
   29        0.504   0.514   8.324   9.342
   30        0.503   0.392   8.315   9.211
   31        0.506   0.405   8.327   9.238
   32        0.498   0.500   8.319   9.317
   33        0.497   0.390   8.307   9.194
   34        0.509   0.409   8.317   9.235
   35        0.495   0.495   8.310   9.300
   36        0.498   0.496   8.322   9.316
   37        0.499   0.394   8.318   9.211
   38        0.505   0.405   8.326   9.235
   39        0.494   0.388   8.326   9.208
   40        0.504   0.397   8.328   9.229
   41        0.493   0.491   8.313   9.297
   42        0.488   0.381   8.315   9.183
   43        0.500   0.397   8.319   9.216
   44        0.496   0.387   8.324   9.207
   45        0.502   0.400   8.325   9.228
   46        0.472   0.399   6.121   6.991
   47        0.474   0.409   6.129   7.011
   48        0.471   0.405   6.136   7.011
   49        0.475   0.415   6.145   7.035
   50        0.467   0.496   6.168   7.132
   51        0.470   0.501   6.185   7.156
   52        0.472   0.502   6.179   7.154
   53        0.470   0.405   6.167   7.042
   54        0.466   0.396   6.158   7.019
   55        0.471   0.501   6.166   7.138
   56        0.474   0.413   6.170   7.057
   57        0.471   0.399   6.172   7.042
   58        0.471   0.406   6.139   7.016
   59        0.470   0.396   6.143   7.008
   60        0.466   0.386   6.111   6.964
   61        0.467   0.396   6.116   6.979
   62        0.471   0.394   6.132   6.997
   63        0.475   0.411   6.137   7.023
   64        0.469   0.503   6.138   7.109
--------------------------------------------------
tot         31.395  28.714 491.171 551.279
 


 magnetization (x)
 
# of ion       s       p       d       tot
------------------------------------------
    1       -0.011  -0.029   0.680   0.639
    2       -0.014  -0.035   0.695   0.646
    3       -0.013  -0.030   0.669   0.626
    4       -0.011  -0.026   0.648   0.611
    5       -0.012  -0.031   0.690   0.647
    6       -0.021  -0.045   0.716   0.650
    7       -0.013  -0.032   0.679   0.634
    8       -0.018  -0.044   0.721   0.659
    9       -0.019  -0.046   0.738   0.673
   10       -0.015  -0.038   0.688   0.634
   11       -0.018  -0.043   0.706   0.645
   12       -0.016  -0.038   0.688   0.634
   13       -0.020  -0.029   0.676   0.627
   14       -0.020  -0.034   0.694   0.640
   15       -0.015  -0.027   0.621   0.579
   16       -0.014  -0.030   0.648   0.604
   17       -0.018  -0.041   0.717   0.658
   18       -0.022  -0.044   0.714   0.648
   19       -0.023  -0.044   0.704   0.637
   20       -0.026  -0.042   0.713   0.646
   21       -0.018  -0.040   0.706   0.648
   22       -0.025  -0.050   0.728   0.653
   23       -0.007  -0.023   0.671   0.641
   24       -0.013  -0.033   0.717   0.672
   25       -0.013  -0.033   0.655   0.609
   26       -0.015  -0.032   0.663   0.616
   27       -0.017  -0.041   0.661   0.602
   28       -0.013  -0.033   0.709   0.664
   29       -0.017  -0.041   0.680   0.622
   30       -0.025  -0.035   0.716   0.656
   31       -0.022  -0.037   0.684   0.626
   32       -0.013  -0.032   0.666   0.620
   33       -0.022  -0.039   0.729   0.668
   34       -0.028  -0.043   0.714   0.643
   35       -0.011  -0.028   0.664   0.625
   36       -0.014  -0.029   0.650   0.607
   37       -0.017  -0.033   0.696   0.646
   38       -0.019  -0.034   0.673   0.620
   39       -0.012  -0.027   0.655   0.615
   40       -0.018  -0.031   0.673   0.624
   41       -0.011  -0.024   0.650   0.615
   42       -0.010  -0.026   0.671   0.636
   43       -0.015  -0.030   0.689   0.644
   44       -0.013  -0.025   0.658   0.620
   45       -0.013  -0.027   0.668   0.627
   46        0.012  -0.008   2.897   2.901
   47        0.011  -0.012   2.879   2.878
   48        0.009  -0.018   2.849   2.840
   49        0.008  -0.019   2.824   2.813
   50        0.002  -0.018   2.749   2.733
   51       -0.001  -0.024   2.707   2.682
   52        0.002  -0.014   2.731   2.719
   53        0.001  -0.030   2.764   2.736
   54        0.001  -0.028   2.788   2.762
   55        0.003  -0.015   2.759   2.746
   56        0.005  -0.023   2.770   2.752
   57        0.002  -0.022   2.768   2.748
   58        0.013  -0.011   2.849   2.851
   59        0.010  -0.011   2.841   2.840
   60        0.011  -0.008   2.914   2.917
   61        0.014  -0.005   2.907   2.916
   62        0.009  -0.010   2.875   2.873
   63        0.011  -0.011   2.857   2.858
   64        0.009  -0.007   2.831   2.833
--------------------------------------------------
tot         -0.606  -1.847  84.409  81.956
 
 BZINTS: Fermi energy:  0.247962;602.000000 electrons
         Band energy:***********;  BLOECHL correction: -0.123965

 total amount of memory used by VASP MPI-rank0   255750. kBytes
=======================================================================

   base      :      30000. kBytes
   nonlr-proj:      13088. kBytes
   fftplans  :       6403. kBytes
   grid      :      16455. kBytes
   one-center:         93. kBytes
   wavefun   :     189711. kBytes
 
  
  
 General timing and accounting informations for this job:
 ========================================================
  
                  Total CPU time used (sec):     1218.607
                            User time (sec):     1201.001
                          System time (sec):       17.605
                         Elapsed time (sec):     1231.588
  
                   Maximum memory used (kb):      357808.
                   Average memory used (kb):           0.
  
                          Minor page faults:        24709
                          Major page faults:            0
                 Voluntary context switches:         7913
