SQS-NiFe                                
           1
    10.026770    0.000000    0.000000
    -5.013385    8.683438    0.000000
     0.000000    0.000000   21.243458
   Ni   Fe
  45  19
Direct configuration=     1
   0.00052900  0.00053000  0.19343852
   0.25001300  0.00028700  0.19258269
   0.49948700  0.99908000  0.19330643
   0.74930200  0.99919300  0.19338794
   0.99864000  0.24850700  0.19328475
   0.25012600  0.25021600  0.19292722
   0.08336116  0.16673942  0.28971363
   0.50064200  0.24891300  0.19337349
   0.33251558  0.16672146  0.29003809
   0.75052500  0.25006200  0.19419811
   0.58205899  0.16750077  0.29082113
   0.83368973  0.16749147  0.28964068
   0.66558100  0.08305500  0.09724336
   0.66617656  0.08342066  0.38474791
   0.91639700  0.08203100  0.09671153
   0.91438979  0.07994219  0.38301659
   0.00183400  0.50047500  0.19189796
   0.08079342  0.41707357  0.28975401
   0.16611800  0.33395200  0.09673755
   0.16715157  0.33354935  0.38338823
   0.75170200  0.50186900  0.19211445
   0.58406285  0.41660187  0.29044328
   0.00109100  0.75115300  0.19219162
   0.24902600  0.74885700  0.19200086
   0.08424204  0.66762005  0.28785500
   0.49972500  0.74917300  0.19214971
   0.33170912  0.66553522  0.28798041
   0.75128300  0.75093600  0.19293993
   0.58313031  0.66622498  0.28829452
   0.41661000  0.58200200  0.09548198
   0.41935871  0.58261286  0.38279187
   0.83383535  0.66665020  0.28833359
   0.91708300  0.58323900  0.09545972
   0.91763157  0.58333526  0.38229636
   0.08396559  0.91764489  0.28819018
   0.33447158  0.91703463  0.28906484
   0.16670900  0.83524200  0.09602941
   0.16674247  0.83610271  0.38151894
   0.41703500  0.83214900  0.09672078
   0.41888676  0.83263147  0.38348745
   0.83247151  0.91680478  0.28920011
   0.66623900  0.83337000  0.09700230
   0.66682335  0.83549780  0.38370170
   0.91705900  0.83319500  0.09682368
   0.91645265  0.83340763  0.38208738
   0.16168500  0.08211500  0.09597016
   0.16119563  0.08169737  0.38371049
   0.41607500  0.07807100  0.09643550
   0.41546189  0.07698330  0.38406887
   0.24829900  0.49904600  0.19264223
   0.50648100  0.50259500  0.19338476
   0.33280719  0.41592383  0.29091249
   0.41638400  0.33144300  0.09718295
   0.41981185  0.33191054  0.38802946
   0.83317826  0.41773702  0.28922934
   0.66732400  0.33240600  0.09901110
   0.66787905  0.33367392  0.38787520
   0.91446400  0.32695500  0.09862235
   0.91570289  0.32635611  0.38629279
   0.16914200  0.58833400  0.09414663
   0.16973924  0.58690001  0.38263309
   0.66961600  0.58928900  0.09452787
   0.67051604  0.59025680  0.38276460
   0.58303765  0.91622621  0.28929666
