       N       E                     dE             d eps       ncg     rms          rms(c)
DAV:   1     0.266792330732E+04    0.26679E+04   -0.11388E+05 13299   0.174E+03
DAV:   2     0.195652740223E+03   -0.24723E+04   -0.22559E+04 13272   0.366E+02
DAV:   3    -0.200360932610E+03   -0.39601E+03   -0.31433E+03 13272   0.175E+02
DAV:   4    -0.226022395713E+03   -0.25661E+02   -0.24810E+02 14289   0.542E+01
DAV:   5    -0.226346214774E+03   -0.32382E+00   -0.32354E+00 15288   0.599E+00    0.854E+01
RMM:   6    -0.420641910140E+03   -0.19430E+03   -0.47257E+02 13611   0.710E+01    0.160E+02
RMM:   7    -0.269595940451E+03    0.15105E+03   -0.13382E+02 13272   0.407E+01    0.104E+02
RMM:   8    -0.244662058193E+03    0.24934E+02   -0.76099E+01 13272   0.290E+01    0.909E+01
RMM:   9    -0.234096807213E+03    0.10565E+02   -0.29409E+01 13272   0.184E+01    0.773E+01
RMM:  10    -0.222405995584E+03    0.11691E+02   -0.21277E+01 13272   0.154E+01    0.465E+01
RMM:  11    -0.235124775843E+03   -0.12719E+02   -0.10607E+01 13272   0.109E+01    0.762E+01
RMM:  12    -0.221116983149E+03    0.14008E+02   -0.73889E+00 13272   0.895E+00    0.366E+01
RMM:  13    -0.218207022961E+03    0.29100E+01   -0.27474E+00 13272   0.543E+00    0.250E+01
RMM:  14    -0.216074098450E+03    0.21329E+01   -0.78974E-01 13272   0.287E+00    0.150E+01
RMM:  15    -0.216454990643E+03   -0.38089E+00   -0.60883E-01 13272   0.248E+00    0.161E+01
RMM:  16    -0.216926585885E+03   -0.47160E+00   -0.42472E-01 13272   0.205E+00    0.147E+01
RMM:  17    -0.216640485829E+03    0.28610E+00   -0.22771E-01 13272   0.152E+00    0.955E+00
RMM:  18    -0.217018877904E+03   -0.37839E+00   -0.13464E-01 13272   0.109E+00    0.101E+01
RMM:  19    -0.217137689577E+03   -0.11881E+00   -0.92220E-02 13272   0.952E-01    0.924E+00
RMM:  20    -0.217284765833E+03   -0.14708E+00   -0.26465E-02 13272   0.475E-01    0.929E+00
RMM:  21    -0.217345505360E+03   -0.60740E-01   -0.15267E-02 13272   0.383E-01    0.919E+00
RMM:  22    -0.217402528967E+03   -0.57024E-01   -0.47565E-03 13272   0.200E-01    0.919E+00
RMM:  23    -0.217501792718E+03   -0.99264E-01   -0.55095E-03 13272   0.198E-01    0.902E+00
RMM:  24    -0.217881063624E+03   -0.37927E+00   -0.61887E-02 13272   0.708E-01    0.886E+00
RMM:  25    -0.218205328677E+03   -0.32427E+00   -0.13187E-01 13272   0.100E+00    0.696E+00
RMM:  26    -0.218692903839E+03   -0.48758E+00   -0.22600E-01 13272   0.135E+00    0.830E+00
RMM:  27    -0.218613240956E+03    0.79663E-01   -0.16216E-01 13272   0.124E+00    0.536E+00
RMM:  28    -0.218688518583E+03   -0.75278E-01   -0.10160E-01 13272   0.983E-01    0.642E+00
RMM:  29    -0.218562892665E+03    0.12563E+00   -0.71022E-02 13272   0.862E-01    0.337E+00
RMM:  30    -0.218623967494E+03   -0.61075E-01   -0.62143E-02 13272   0.776E-01    0.431E+00
RMM:  31    -0.218539298609E+03    0.84669E-01   -0.44084E-02 13272   0.661E-01    0.241E+00
RMM:  32    -0.218547567387E+03   -0.82688E-02   -0.11926E-02 13272   0.332E-01    0.242E+00
RMM:  33    -0.218546048380E+03    0.15190E-02   -0.10518E-02 13272   0.326E-01    0.176E+00
RMM:  34    -0.218554970757E+03   -0.89224E-02   -0.11827E-02 13272   0.307E-01    0.120E+00
RMM:  35    -0.218550133770E+03    0.48370E-02   -0.40766E-03 13272   0.199E-01    0.624E-01
RMM:  36    -0.218550520479E+03   -0.38671E-03   -0.81805E-04 13272   0.885E-02    0.534E-01
RMM:  37    -0.218550776548E+03   -0.25607E-03   -0.67518E-04 13272   0.843E-02    0.457E-01
RMM:  38    -0.218550858743E+03   -0.82196E-04   -0.55201E-04 13272   0.713E-02    0.253E-01
RMM:  39    -0.218550872239E+03   -0.13495E-04   -0.15039E-04 13272   0.393E-02    0.226E-01
RMM:  40    -0.218550785384E+03    0.86855E-04   -0.87012E-05 13271   0.290E-02    0.101E-01
RMM:  41    -0.218550802509E+03   -0.17126E-04   -0.31176E-05 10976   0.180E-02    0.105E-01
RMM:  42    -0.218550775170E+03    0.27339E-04   -0.21165E-05  9101   0.162E-02    0.559E-02
RMM:  43    -0.218550785031E+03   -0.98605E-05   -0.10992E-05  7863   0.107E-02
   1 F= -.21855079E+03 E0= -.21853412E+03  d E =-.218551E+03  mag=    52.2413
       N       E                     dE             d eps       ncg     rms          rms(c)
DAV:   1    -0.218196645201E+03    0.35413E+00   -0.17325E+02 13947   0.242E+01    0.102E+01
RMM:   2    -0.225140785200E+03   -0.69441E+01   -0.82743E+00 13272   0.105E+01    0.385E+01
RMM:   3    -0.219383076809E+03    0.57577E+01   -0.26617E+00 13272   0.533E+00    0.836E+00
RMM:   4    -0.219547512320E+03   -0.16444E+00   -0.53643E-01 13272   0.238E+00    0.901E+00
RMM:   5    -0.219230806871E+03    0.31671E+00   -0.16807E-01 13272   0.138E+00    0.171E+00
RMM:   6    -0.219239701875E+03   -0.88950E-02   -0.24419E-02 13272   0.495E-01    0.218E+00
RMM:   7    -0.219217057769E+03    0.22644E-01   -0.14206E-02 13272   0.386E-01    0.817E-01
RMM:   8    -0.219223379560E+03   -0.63218E-02   -0.12599E-02 13272   0.335E-01    0.159E+00
RMM:   9    -0.219212157365E+03    0.11222E-01   -0.86600E-03 13272   0.285E-01    0.340E-01
RMM:  10    -0.219213398435E+03   -0.12411E-02   -0.19979E-03 13272   0.132E-01    0.565E-01
RMM:  11    -0.219212060825E+03    0.13376E-02   -0.99871E-04 13272   0.988E-02    0.110E-01
RMM:  12    -0.219212234817E+03   -0.17399E-03   -0.20808E-04 13272   0.443E-02    0.201E-01
RMM:  13    -0.219212065622E+03    0.16919E-03   -0.10597E-04 13217   0.332E-02    0.536E-02
RMM:  14    -0.219212078797E+03   -0.13175E-04   -0.23201E-05  9479   0.156E-02    0.725E-02
RMM:  15    -0.219212061608E+03    0.17189E-04   -0.12764E-05  7976   0.132E-02    0.227E-02
RMM:  16    -0.219212062925E+03   -0.13166E-05   -0.42097E-06  7591   0.701E-03
   2 F= -.21921206E+03 E0= -.21919783E+03  d E =-.661278E+00  mag=    53.2055
       N       E                     dE             d eps       ncg     rms          rms(c)
DAV:   1    -0.218739193208E+03    0.47287E+00   -0.10733E+02 13890   0.189E+01    0.781E+00
RMM:   2    -0.222087683973E+03   -0.33485E+01   -0.42040E+00 13272   0.748E+00    0.262E+01
RMM:   3    -0.219454433054E+03    0.26333E+01   -0.13902E+00 13272   0.382E+00    0.606E+00
RMM:   4    -0.219559564659E+03   -0.10513E+00   -0.26441E-01 13272   0.168E+00    0.646E+00
RMM:   5    -0.219386660999E+03    0.17290E+00   -0.90029E-02 13272   0.101E+00    0.109E+00
RMM:   6    -0.219392068381E+03   -0.54074E-02   -0.12425E-02 13272   0.354E-01    0.163E+00
RMM:   7    -0.219378806384E+03    0.13262E-01   -0.80733E-03 13272   0.291E-01    0.544E-01
RMM:   8    -0.219381496857E+03   -0.26905E-02   -0.69121E-03 13272   0.241E-01    0.109E+00
RMM:   9    -0.219376184386E+03    0.53125E-02   -0.42503E-03 13272   0.199E-01    0.218E-01
RMM:  10    -0.219376576644E+03   -0.39226E-03   -0.79237E-04 13274   0.822E-02    0.341E-01
RMM:  11    -0.219376093485E+03    0.48316E-03   -0.36949E-04 13272   0.598E-02    0.675E-02
RMM:  12    -0.219376150975E+03   -0.57490E-04   -0.70373E-05 13058   0.261E-02    0.118E-01
RMM:  13    -0.219376090432E+03    0.60543E-04   -0.35762E-05 11217   0.200E-02    0.303E-02
RMM:  14    -0.219376101009E+03   -0.10576E-04   -0.12091E-05  7906   0.115E-02    0.541E-02
RMM:  15    -0.219376089746E+03    0.11262E-04   -0.79118E-06  7701   0.106E-02    0.142E-02
RMM:  16    -0.219376090857E+03   -0.11112E-05   -0.21978E-06  7409   0.495E-03
   3 F= -.21937609E+03 E0= -.21936492E+03  d E =-.825306E+00  mag=    53.6139
       N       E                     dE             d eps       ncg     rms          rms(c)
DAV:   1    -0.219291078513E+03    0.85011E-01   -0.36176E+01 13974   0.110E+01    0.371E+00
RMM:   2    -0.219781216839E+03   -0.49014E+00   -0.77167E-01 13272   0.323E+00    0.924E+00
RMM:   3    -0.219493544463E+03    0.28767E+00   -0.24178E-01 13272   0.157E+00    0.324E+00
RMM:   4    -0.219484936560E+03    0.86079E-02   -0.37046E-02 13272   0.625E-01    0.192E+00
RMM:   5    -0.219468864075E+03    0.16072E-01   -0.10605E-02 13272   0.335E-01    0.512E-01
RMM:   6    -0.219468831263E+03    0.32813E-04   -0.21081E-03 13272   0.143E-01    0.688E-01
RMM:   7    -0.219466662876E+03    0.21684E-02   -0.19706E-03 13272   0.142E-01    0.320E-01
RMM:   8    -0.219466811274E+03   -0.14840E-03   -0.14335E-03 13272   0.105E-01    0.419E-01
RMM:   9    -0.219466026539E+03    0.78473E-03   -0.64875E-04 13272   0.772E-02    0.914E-02
RMM:  10    -0.219466046706E+03   -0.20167E-04   -0.76034E-05 12886   0.265E-02    0.107E-01
RMM:  11    -0.219465996307E+03    0.50399E-04   -0.31712E-05 10732   0.188E-02    0.257E-02
RMM:  12    -0.219466003346E+03   -0.70390E-05   -0.93503E-06  7813   0.100E-02
   4 F= -.21946600E+03 E0= -.21945763E+03  d E =-.899125E-01  mag=    53.8483
       N       E                     dE             d eps       ncg     rms          rms(c)
DAV:   1    -0.219453505698E+03    0.12491E-01   -0.37892E+00 14121   0.353E+00    0.119E+00
RMM:   2    -0.219503068639E+03   -0.49563E-01   -0.73384E-02 13272   0.997E-01    0.286E+00
RMM:   3    -0.219474088723E+03    0.28980E-01   -0.24008E-02 13272   0.497E-01    0.102E+00
RMM:   4    -0.219473418793E+03    0.66993E-03   -0.34639E-03 13272   0.192E-01    0.624E-01
RMM:   5    -0.219471699839E+03    0.17190E-02   -0.97598E-04 13272   0.102E-01    0.143E-01
RMM:   6    -0.219471781358E+03   -0.81520E-04   -0.26604E-04 13272   0.498E-02    0.249E-01
RMM:   7    -0.219471475144E+03    0.30621E-03   -0.23269E-04 13272   0.478E-02    0.779E-02
RMM:   8    -0.219471531442E+03   -0.56298E-04   -0.11053E-04 13263   0.304E-02    0.132E-01
RMM:   9    -0.219471450451E+03    0.80992E-04   -0.54286E-05 12268   0.231E-02    0.216E-02
RMM:  10    -0.219471453438E+03   -0.29872E-05   -0.57738E-06  7737   0.805E-03
   5 F= -.21947145E+03 E0= -.21946391E+03  d E =-.953626E-01  mag=    53.9087
       N       E                     dE             d eps       ncg     rms          rms(c)
DAV:   1    -0.219471444603E+03    0.58477E-05   -0.29517E-03 14268   0.103E-01    0.333E-02
RMM:   2    -0.219471480651E+03   -0.36048E-04   -0.65043E-05 12984   0.293E-02    0.762E-02
RMM:   3    -0.219471461037E+03    0.19614E-04   -0.17386E-05  8308   0.139E-02    0.294E-02
RMM:   4    -0.219471460093E+03    0.94387E-06   -0.33541E-06  7535   0.702E-03
   6 F= -.21947146E+03 E0= -.21946389E+03  d E =-.953692E-01  mag=    53.9062
       N       E                     dE             d eps       ncg     rms          rms(c)
DAV:   1    -0.219470349150E+03    0.11119E-02   -0.91393E-01 13860   0.173E+00    0.535E-01
RMM:   2    -0.219475351120E+03   -0.50020E-02   -0.12544E-02 13272   0.408E-01    0.603E-01
RMM:   3    -0.219476198632E+03   -0.84751E-03   -0.32164E-03 13272   0.181E-01    0.620E-01
RMM:   4    -0.219474585804E+03    0.16128E-02   -0.75373E-04 13272   0.918E-02    0.142E-01
RMM:   5    -0.219474504542E+03    0.81261E-04   -0.10016E-04 13172   0.317E-02    0.702E-02
RMM:   6    -0.219474476144E+03    0.28399E-04   -0.66273E-05 13256   0.219E-02    0.921E-02
RMM:   7    -0.219474438271E+03    0.37873E-04   -0.44570E-05 11926   0.199E-02    0.416E-02
RMM:   8    -0.219474445525E+03   -0.72536E-05   -0.17435E-05  8067   0.130E-02
   7 F= -.21947445E+03 E0= -.21946692E+03  d E =-.298543E-02  mag=    53.9074
       N       E                     dE             d eps       ncg     rms          rms(c)
DAV:   1    -0.219468183063E+03    0.62552E-02   -0.16993E+00 13800   0.236E+00    0.732E-01
RMM:   2    -0.219477517105E+03   -0.93340E-02   -0.23396E-02 13272   0.556E-01    0.825E-01
RMM:   3    -0.219479076186E+03   -0.15591E-02   -0.59643E-03 13273   0.246E-01    0.844E-01
RMM:   4    -0.219476081625E+03    0.29946E-02   -0.13933E-03 13272   0.125E-01    0.195E-01
RMM:   5    -0.219475932200E+03    0.14943E-03   -0.19206E-04 13272   0.439E-02    0.989E-02
RMM:   6    -0.219475887026E+03    0.45174E-04   -0.11410E-04 13272   0.296E-02    0.131E-01
RMM:   7    -0.219475809325E+03    0.77702E-04   -0.83456E-05 13161   0.270E-02    0.570E-02
RMM:   8    -0.219475825965E+03   -0.16640E-04   -0.40187E-05 11650   0.180E-02    0.809E-02
RMM:   9    -0.219475796795E+03    0.29170E-04   -0.19495E-05  8379   0.151E-02    0.131E-02
RMM:  10    -0.219475797649E+03   -0.85362E-06   -0.28371E-06  7506   0.574E-03
   8 F= -.21947580E+03 E0= -.21946838E+03  d E =-.433756E-02  mag=    53.9094
       N       E                     dE             d eps       ncg     rms          rms(c)
DAV:   1    -0.219473533132E+03    0.22637E-02   -0.99980E-01 13824   0.182E+00    0.486E-01
RMM:   2    -0.219477526354E+03   -0.39932E-02   -0.13132E-02 13272   0.426E-01    0.484E-01
RMM:   3    -0.219478990864E+03   -0.14645E-02   -0.31485E-03 13272   0.177E-01    0.631E-01
RMM:   4    -0.219477315418E+03    0.16754E-02   -0.91592E-04 13272   0.991E-02    0.139E-01
RMM:   5    -0.219477245714E+03    0.69704E-04   -0.99204E-05 13185   0.315E-02    0.733E-02
RMM:   6    -0.219477228655E+03    0.17060E-04   -0.73413E-05 13260   0.240E-02    0.112E-01
RMM:   7    -0.219477172747E+03    0.55907E-04   -0.56045E-05 12381   0.220E-02    0.364E-02
RMM:   8    -0.219477182069E+03   -0.93211E-05   -0.16595E-05  8307   0.128E-02
   9 F= -.21947718E+03 E0= -.21946972E+03  d E =-.138442E-02  mag=    53.9163
       N       E                     dE             d eps       ncg     rms          rms(c)
DAV:   1    -0.219476662439E+03    0.51031E-03   -0.16616E-01 13956   0.743E-01    0.199E-01
RMM:   2    -0.219477327543E+03   -0.66510E-03   -0.22117E-03 13272   0.174E-01    0.197E-01
RMM:   3    -0.219477583611E+03   -0.25607E-03   -0.53329E-04 13272   0.728E-02    0.262E-01
RMM:   4    -0.219477298413E+03    0.28520E-03   -0.15711E-04 13208   0.410E-02    0.567E-02
RMM:   5    -0.219477286980E+03    0.11433E-04   -0.14974E-05  8256   0.131E-02    0.320E-02
RMM:   6    -0.219477283729E+03    0.32505E-05   -0.10049E-05  7784   0.106E-02
  10 F= -.21947728E+03 E0= -.21946982E+03  d E =-.148608E-02  mag=    53.9186
