 vasp.5.4.4.18Apr17-6-g9f103f2a35 (build Sep 06 2021 19:49:22) complex          
  
 executed on             LinuxIFC date 2021.12.24  18:22:17
 running on   24 total cores
 distrk:  each k-point on   24 cores,    1 groups
 distr:  one band on NCORES_PER_BAND=   8 cores,    3 groups


--------------------------------------------------------------------------------------------------------


 INCAR:
 POTCAR:    PAW_PBE Fe 06Sep2000                  
 POTCAR:    PAW_PBE Ni 02Aug2007                  
 POTCAR:    PAW_PBE Fe 06Sep2000                  
   VRHFIN =Fe:  d7 s1                                                           
   LEXCH  = PE                                                                  
   EATOM  =   594.3153 eV,   43.6809 Ry                                         
                                                                                
   TITEL  = PAW_PBE Fe 06Sep2000                                                
   LULTRA =        F    use ultrasoft PP ?                                      
   IUNSCR =        1    unscreen: 0-lin 1-nonlin 2-no                           
   RPACOR =    2.000    partial core radius                                     
   POMASS =   55.847; ZVAL   =    8.000    mass and valenz                      
   RCORE  =    2.300    outmost cutoff radius                                   
   RWIGS  =    2.460; RWIGS  =    1.302    wigner-seitz radius (au A)           
   ENMAX  =  267.882; ENMIN  =  200.911 eV                                      
   RCLOC  =    1.701    cutoff for local pot                                    
   LCOR   =        T    correct aug charges                                     
   LPAW   =        T    paw PP                                                  
   EAUG   =  511.368                                                            
   DEXC   =    0.000                                                            
   RMAX   =    2.356    core radius for proj-oper                               
   RAUG   =    1.300    factor for augmentation sphere                          
   RDEP   =    2.442    radius for radial grids                                 
   RDEPT  =    1.890    core radius for aug-charge                              
                                                                                
   Atomic configuration                                                         
    9 entries                                                                   
     n  l   j            E        occ.                                          
     1  0  0.50     -6993.8440   2.0000                                         
     2  0  0.50      -814.6047   2.0000                                         
     2  1  1.50      -693.3689   6.0000                                         
     3  0  0.50       -89.4732   2.0000                                         
     3  1  1.50       -55.6373   6.0000                                         
     3  2  2.50        -3.8151   7.0000                                         
     4  0  0.50        -4.2551   1.0000                                         
     4  1  1.50        -3.4015   0.0000                                         
     4  3  2.50        -1.3606   0.0000                                         
   Description                                                                  
     l       E           TYP  RCUT    TYP  RCUT                                 
     2     -3.8151135     23  2.300                                             
     2     -5.1756961     23  2.300                                             
     0     -4.2550963     23  2.300                                             
     0      7.2035603     23  2.300                                             
     1     -2.7211652     23  2.300                                             
     1     18.4316424     23  2.300                                             
  local pseudopotential read in
  partial core-charges read in
  partial kinetic energy density read in
  atomic valenz-charges read in
  non local Contribution for L=           2  read in
    real space projection operators read in
  non local Contribution for L=           2  read in
    real space projection operators read in
  non local Contribution for L=           0  read in
    real space projection operators read in
  non local Contribution for L=           0  read in
    real space projection operators read in
  non local Contribution for L=           1  read in
    real space projection operators read in
  non local Contribution for L=           1  read in
    real space projection operators read in
    PAW grid and wavefunctions read in
 
   number of l-projection  operators is LMAX  =           6
   number of lm-projection operators is LMMAX =          18
 
 POTCAR:    PAW_PBE Ni 02Aug2007                  
   VRHFIN =Ni:                                                                  
   LEXCH  = PE                                                                  
   EATOM  =  1077.6739 eV,   79.2068 Ry                                         
                                                                                
   TITEL  = PAW_PBE Ni 02Aug2007                                                
   LULTRA =        F    use ultrasoft PP ?                                      
   IUNSCR =        1    unscreen: 0-lin 1-nonlin 2-no                           
   RPACOR =    2.000    partial core radius                                     
   POMASS =   58.690; ZVAL   =   10.000    mass and valenz                      
   RCORE  =    2.300    outmost cutoff radius                                   
   RWIGS  =    2.430; RWIGS  =    1.286    wigner-seitz radius (au A)           
   ENMAX  =  269.532; ENMIN  =  202.149 eV                                      
   RCLOC  =    1.201    cutoff for local pot                                    
   LCOR   =        T    correct aug charges                                     
   LPAW   =        T    paw PP                                                  
   EAUG   =  544.565                                                            
   DEXC   =    0.000                                                            
   RMAX   =    2.357    core radius for proj-oper                               
   RAUG   =    1.300    factor for augmentation sphere                          
   RDEP   =    2.390    radius for radial grids                                 
   RDEPT  =    1.838    core radius for aug-charge                              
                                                                                
   Atomic configuration                                                         
    9 entries                                                                   
     n  l   j            E        occ.                                          
     1  0  0.50     -8206.4253   2.0000                                         
     2  0  0.50      -976.1748   2.0000                                         
     2  1  1.50      -839.0571   6.0000                                         
     3  0  0.50      -105.9991   2.0000                                         
     3  1  1.50       -66.4603   6.0000                                         
     3  2  2.50        -4.6458   9.0000                                         
     4  0  0.50        -4.4926   1.0000                                         
     4  1  1.50        -4.0817   0.0000                                         
     4  3  2.50        -1.3606   0.0000                                         
   Description                                                                  
     l       E           TYP  RCUT    TYP  RCUT                                 
     2     -4.6457903     23  2.300                                             
     2     -6.0063729     23  2.300                                             
     0     -4.4925590     23  2.300                                             
     0      5.0102601     23  2.300                                             
     1     -2.7211652     23  2.300                                             
     1     16.5183231     23  2.300                                             
  local pseudopotential read in
  partial core-charges read in
  partial kinetic energy density read in
  atomic valenz-charges read in
  non local Contribution for L=           2  read in
    real space projection operators read in
  non local Contribution for L=           2  read in
    real space projection operators read in
  non local Contribution for L=           0  read in
    real space projection operators read in
  non local Contribution for L=           0  read in
    real space projection operators read in
  non local Contribution for L=           1  read in
    real space projection operators read in
  non local Contribution for L=           1  read in
    real space projection operators read in
    PAW grid and wavefunctions read in
 
   number of l-projection  operators is LMAX  =           6
   number of lm-projection operators is LMMAX =          18
 
 Optimization of the real space projectors (new method)

 maximal supplied QI-value         = 16.25
 optimisation between [QCUT,QGAM] = [ 11.54, 23.24] = [ 37.28,151.24] Ry 
 Optimized for a Real-space Cutoff    1.53 Angstroem

   l    n(q)    QCUT    max X(q) W(low)/X(q) W(high)/X(q)  e(spline) 
   2     10    11.539    80.901    0.11E-03    0.14E-03    0.21E-06
   2     10    11.539    75.754    0.11E-03    0.14E-03    0.22E-06
   0     11    11.539    58.752    0.52E-04    0.18E-04    0.33E-06
   0     11    11.539    30.679    0.44E-04    0.16E-04    0.30E-06
   1     10    11.539    17.977    0.53E-04    0.29E-04    0.13E-06
   1     10    11.539    13.559    0.44E-04    0.25E-04    0.11E-06
 Optimization of the real space projectors (new method)

 maximal supplied QI-value         = 16.25
 optimisation between [QCUT,QGAM] = [ 11.54, 23.24] = [ 37.28,151.24] Ry 
 Optimized for a Real-space Cutoff    1.45 Angstroem

   l    n(q)    QCUT    max X(q) W(low)/X(q) W(high)/X(q)  e(spline) 
   2      9    11.539    60.317    0.19E-03    0.47E-04    0.16E-06
   2      9    11.539    55.921    0.19E-03    0.48E-04    0.16E-06
   0     10    11.539    51.690    0.80E-04    0.50E-04    0.24E-06
   0     10    11.539    30.015    0.73E-04    0.45E-04    0.22E-06
   1     10    11.539    18.849    0.87E-04    0.16E-03    0.71E-07
   1     10    11.539    14.624    0.73E-04    0.13E-03    0.64E-07
  PAW_PBE Fe 06Sep2000                  :
 energy of atom  1       EATOM= -594.3153
 kinetic energy error for atom=    0.0026 (will be added to EATOM!!)
  PAW_PBE Ni 02Aug2007                  :
 energy of atom  2       EATOM=-1077.6739
 kinetic energy error for atom=    0.0030 (will be added to EATOM!!)
 
 
 POSCAR: POSCAR                                  
  positions in direct lattice
  velocities in cartesian coordinates
 exchange correlation table for  LEXCH =        8
   RHO(1)=    0.500       N(1)  =     2000
   RHO(2)=  100.500       N(2)  =     4000
 


--------------------------------------------------------------------------------------------------------


 ion  position               nearest neighbor table
   1  1.000  0.007  0.500-  14 2.43   7 2.43   4 2.46   2 2.46  10 2.50   6 2.50  26 2.51  17 2.51
                            31 2.53  22 2.53  11 2.53   5 2.53
   2  0.002  0.243  0.750-  10 2.44  17 2.45   1 2.46   3 2.46   8 2.48  12 2.49   7 2.49  15 2.52
                            14 2.52  27 2.53  18 2.54  20 2.54
   3  0.000  0.007  0.000-  12 2.43  15 2.43   4 2.46   2 2.46   6 2.50  10 2.50  26 2.51  17 2.51
                            28 2.53  32 2.53  11 2.53   5 2.53
   4  0.998  0.243  0.250-   6 2.43  26 2.45   1 2.46   3 2.46  16 2.48  14 2.48  15 2.49   7 2.52
                            12 2.52  21 2.53  18 2.54  20 2.54
   5  0.000  0.755  0.750-  17 2.49  28 2.50  22 2.50  32 2.51  31 2.51  10 2.51   3 2.53   1 2.53
                             8 2.54  27 2.55  20 2.57  18 2.57
   6  0.245  0.007  0.250-   4 2.43  12 2.46   7 2.46   3 2.50   1 2.50  23 2.51  11 2.51  28 2.55
                            22 2.55  13 2.55   9 2.55  30 2.57
   7  0.245  0.243  0.501-   1 2.43   6 2.46  17 2.47   9 2.47   2 2.49   4 2.52  18 2.52   8 2.53
                            19 2.54  21 2.55  23 2.56  24 2.57
   8  0.242  0.494  0.750-   2 2.48  18 2.49  20 2.49  12 2.53   7 2.53   5 2.54  19 2.55  29 2.56
                            24 2.56  22 2.57  28 2.57  25 2.61
   9  0.500  0.008  0.500-  19 2.47  23 2.47   7 2.47  14 2.47  26 2.54  17 2.54  25 2.55  30 2.55
                            10 2.55   6 2.55  31 2.57  22 2.57
  10  0.755  0.007  0.750-   2 2.44  14 2.46  15 2.46   1 2.50   3 2.50  19 2.51   5 2.51  31 2.55
                            32 2.55   9 2.55  13 2.55  25 2.57
  11  1.000  0.755  0.250-  26 2.49  32 2.50  31 2.50  28 2.51  22 2.51   6 2.51   3 2.53   1 2.53
                            16 2.54  21 2.55  20 2.57  18 2.57
  12  0.245  0.243  0.999-   3 2.43   6 2.46  17 2.47  13 2.47   2 2.49   4 2.52  20 2.52   8 2.53
                            19 2.54  21 2.55  23 2.56  29 2.57
  13  0.500  0.008  0.000-  23 2.47  19 2.47  12 2.47  15 2.47  26 2.54  17 2.54  30 2.55  25 2.55
                             6 2.55  10 2.55  28 2.57  32 2.57
  14  0.755  0.243  0.499-   1 2.43  10 2.46  26 2.47   9 2.47   4 2.48   2 2.52  18 2.52  16 2.53
                            23 2.54  27 2.55  19 2.56  24 2.57
  15  0.755  0.243  0.001-   3 2.43  10 2.46  26 2.47  13 2.47   4 2.49   2 2.52  20 2.52  16 2.53
                            23 2.54  27 2.55  19 2.56  29 2.57
  16  0.758  0.494  0.250-   4 2.48  18 2.49  20 2.49  14 2.53  15 2.53  11 2.54  23 2.55  24 2.56
                            29 2.56  31 2.57  32 2.57  30 2.61
  17  0.247  0.003  0.750-   2 2.45  12 2.47   7 2.47   5 2.49   3 2.51   1 2.51  19 2.51  22 2.52
                            28 2.52  25 2.53  13 2.54   9 2.54
  18  0.000  0.496  0.500-  16 2.49   8 2.49  21 2.50  27 2.50  14 2.52   7 2.52  22 2.54  31 2.54
                             4 2.54   2 2.54   5 2.57  11 2.57
  19  0.500  0.247  0.750-   9 2.47  13 2.47  10 2.51  17 2.51  29 2.52  24 2.52   7 2.54  12 2.54
                            27 2.54   8 2.55  15 2.56  14 2.56
  20  1.000  0.496  1.000-   8 2.49  16 2.49  27 2.50  21 2.50  12 2.52  15 2.52  28 2.54  32 2.54
                             2 2.54   4 2.54   5 2.57  11 2.57
  21  0.246  0.496  0.250-  18 2.50  20 2.50   4 2.53  23 2.54  24 2.55  29 2.55   7 2.55  12 2.55
                            11 2.55  22 2.56  28 2.56  30 2.59
  22  0.246  0.753  0.500-   5 2.50  11 2.51  17 2.52   1 2.53  18 2.54  25 2.54  30 2.55   6 2.55
                            21 2.56   8 2.57   9 2.57  24 2.58
  23  0.500  0.247  0.250-  13 2.47   9 2.47   6 2.51  26 2.51  24 2.52  29 2.52  14 2.54  15 2.54
                            21 2.54  16 2.55   7 2.56  12 2.56
  24  0.500  0.497  0.500-  23 2.52  19 2.52  27 2.55  21 2.55  16 2.56   8 2.56  30 2.56  25 2.56
                            14 2.57   7 2.57  31 2.58  22 2.58
  25  0.500  0.754  0.750-  17 2.53  28 2.54  22 2.54   9 2.55  13 2.55  32 2.55  31 2.55  29 2.56
                            24 2.56  10 2.57  27 2.59   8 2.61
  26  0.753  0.003  0.250-   4 2.45  15 2.47  14 2.47  11 2.49   1 2.51   3 2.51  23 2.51  32 2.52
                            31 2.52  30 2.53   9 2.54  13 2.54
  27  0.754  0.496  0.750-  20 2.50  18 2.50   2 2.53  19 2.54  24 2.55  29 2.55  14 2.55  15 2.55
                             5 2.55  31 2.56  32 2.56  25 2.59
  28  0.246  0.753  1.000-   5 2.50  11 2.51  17 2.52   3 2.53  20 2.54  25 2.54  30 2.55   6 2.55
                            21 2.56   8 2.57  13 2.57  29 2.58
  29  0.500  0.497  1.000-  19 2.52  23 2.52  21 2.55  27 2.55   8 2.56  16 2.56  25 2.56  30 2.56
                            12 2.57  15 2.57  28 2.58  32 2.58
  30  0.500  0.754  0.250-  26 2.53  32 2.54  31 2.54  13 2.55   9 2.55  28 2.55  22 2.55  24 2.56
                            29 2.56   6 2.57  21 2.59  16 2.61
  31  0.754  0.753  0.500-  11 2.50   5 2.51  26 2.52   1 2.53  18 2.54  30 2.54  25 2.55  10 2.55
                            27 2.56  16 2.57   9 2.57  24 2.58
  32  0.754  0.753  0.000-  11 2.50   5 2.51  26 2.52   3 2.53  20 2.54  30 2.54  25 2.55  10 2.55
                            27 2.56  16 2.57  13 2.57  29 2.58
 

IMPORTANT INFORMATION: All symmetrisations will be switched off!
NOSYMM: (Re-)initialisation of all symmetry stuff for point group C_1.

 
 

Automatic generation of k-mesh.
 generate k-points for:    3    3    3
Space group operators:
 irot       det(A)        alpha          n_x          n_y          n_z        tau_x        tau_y        tau_z
    1     1.000000     0.000000     1.000000     0.000000     0.000000     0.000000     0.000000     0.000000
 
 Subroutine IBZKPT returns following result:
 ===========================================
 
 Found     14 irreducible k-points:
 
 Following reciprocal coordinates:
            Coordinates               Weight
  0.000000  0.000000  0.000000      1.000000
  0.333333  0.000000  0.000000      2.000000
  0.000000  0.333333  0.000000      2.000000
  0.333333  0.333333  0.000000      2.000000
 -0.333333  0.333333  0.000000      2.000000
  0.000000  0.000000  0.333333      2.000000
  0.333333  0.000000  0.333333      2.000000
 -0.333333  0.000000  0.333333      2.000000
  0.000000  0.333333  0.333333      2.000000
  0.333333  0.333333  0.333333      2.000000
 -0.333333  0.333333  0.333333      2.000000
  0.000000 -0.333333  0.333333      2.000000
  0.333333 -0.333333  0.333333      2.000000
 -0.333333 -0.333333  0.333333      2.000000
 
 Following cartesian coordinates:
            Coordinates               Weight
  0.000000  0.000000  0.000000      1.000000
  0.166667  0.000000  0.000000      2.000000
  0.000000  0.166667  0.000000      2.000000
  0.166667  0.166667  0.000000      2.000000
 -0.166667  0.166667  0.000000      2.000000
  0.000000  0.000000  0.166667      2.000000
  0.166667  0.000000  0.166667      2.000000
 -0.166667  0.000000  0.166667      2.000000
  0.000000  0.166667  0.166667      2.000000
  0.166667  0.166667  0.166667      2.000000
 -0.166667  0.166667  0.166667      2.000000
  0.000000 -0.166667  0.166667      2.000000
  0.166667 -0.166667  0.166667      2.000000
 -0.166667 -0.166667  0.166667      2.000000
 


--------------------------------------------------------------------------------------------------------




 Dimension of arrays:
   k-points           NKPTS =     14   k-points in BZ     NKDIM =     14   number of bands    NBANDS=    237
   number of dos      NEDOS =    301   number of ions     NIONS =     32
   non local maximal  LDIM  =      6   non local SUM 2l+1 LMDIM =     18
   total plane-waves  NPLWV = 157464
   max r-space proj   IRMAX =   6583   max aug-charges    IRDMAX=  15595
   dimension x,y,z NGX =    54 NGY =   54 NGZ =   54
   dimension x,y,z NGXF=   108 NGYF=  108 NGZF=  108
   support grid    NGXF=   108 NGYF=  108 NGZF=  108
   ions per type =              16  16
   NGX,Y,Z   is equivalent  to a cutoff of  12.57, 12.57, 12.57 a.u.
   NGXF,Y,Z  is equivalent  to a cutoff of  25.14, 25.14, 25.14 a.u.

 SYSTEM =  SQS-NiFe                                
 POSCAR =  POSCAR                                  

 Startparameter for this run:
   NWRITE =      2    write-flag & timer
   PREC   = accura    normal or accurate (medium, high low for compatibility)
   ISTART =      0    job   : 0-new  1-cont  2-samecut
   ICHARG =      2    charge: 1-file 2-atom 10-const
   ISPIN  =      2    spin polarized calculation?
   LNONCOLLINEAR =      F non collinear calculations
   LSORBIT =      F    spin-orbit coupling
   INIWAV =      1    electr: 0-lowe 1-rand  2-diag
   LASPH  =      F    aspherical Exc in radial PAW
   METAGGA=      F    non-selfconsistent MetaGGA calc.

 Electronic Relaxation 1
   ENCUT  =  520.0 eV  38.22 Ry    6.18 a.u.  13.28 13.28 13.28*2*pi/ulx,y,z
   ENINI  =  520.0     initial cutoff
   ENAUG  =  544.6 eV  augmentation charge cutoff
   NELM   =    200;   NELMIN=  2; NELMDL= -5     # of ELM steps 
   EDIFF  = 0.1E-04   stopping-criterion for ELM
   LREAL  =      T    real-space projection
   NLSPLINE    = F    spline interpolate recip. space projectors
   LCOMPAT=      F    compatible to vasp.4.4
   GGA_COMPAT  = T    GGA compatible to vasp.4.4-vasp.4.6
   LMAXPAW     = -100 max onsite density
   LMAXMIX     =    2 max onsite mixed and CHGCAR
   VOSKOWN=      0    Vosko Wilk Nusair interpolation
   ROPT   =   -0.00025  -0.00025
 Ionic relaxation
   EDIFFG = -.2E-01   stopping-criterion for IOM
   NSW    =     99    number of steps for IOM
   NBLOCK =      1;   KBLOCK =     99    inner block; outer block 
   IBRION =      2    ionic relax: 0-MD 1-quasi-New 2-CG
   NFREE  =      1    steps in history (QN), initial steepest desc. (CG)
   ISIF   =      2    stress and relaxation
   IWAVPR =     11    prediction:  0-non 1-charg 2-wave 3-comb
   ISYM   =      0    0-nonsym 1-usesym 2-fastsym
   LCORR  =      T    Harris-Foulkes like correction to forces

   POTIM  = 0.5000    time-step for ionic-motion
   TEIN   =    0.0    initial temperature
   TEBEG  =    0.0;   TEEND  =   0.0 temperature during run
   SMASS  =  -3.00    Nose mass-parameter (am)
   estimated Nose-frequenzy (Omega)   =  0.10E-29 period in steps =****** mass=  -0.117E-26a.u.
   SCALEE = 1.0000    scale energy and forces
   NPACO  =    256;   APACO  = 16.0  distance and # of slots for P.C.
   PSTRESS=    0.0 pullay stress

  Mass of Ions in am
   POMASS =  55.85 58.69
  Ionic Valenz
   ZVAL   =   8.00 10.00
  Atomic Wigner-Seitz radii
   RWIGS  =  -1.00 -1.00
  virtual crystal weights 
   VCA    =   1.00  1.00
   NELECT =     288.0000    total number of electrons
   NUPDOWN=      -1.0000    fix difference up-down

 DOS related values:
   EMIN   =  10.00;   EMAX   =-10.00  energy-range for DOS
   EFERMI =   0.00
   ISMEAR =     1;   SIGMA  =   0.20  broadening in eV -4-tet -1-fermi 0-gaus

 Electronic relaxation 2 (details)
   IALGO  =     68    algorithm
   LDIAG  =      T    sub-space diagonalisation (order eigenvalues)
   LSUBROT=      F    optimize rotation matrix (better conditioning)
   TURBO    =      0    0=normal 1=particle mesh
   IRESTART =      0    0=no restart 2=restart with 2 vectors
   NREBOOT  =      0    no. of reboots
   NMIN     =      0    reboot dimension
   EREF     =   0.00    reference energy to select bands
   IMIX   =      4    mixing-type and parameters
     AMIX     =   0.40;   BMIX     =  1.00
     AMIX_MAG =   1.60;   BMIX_MAG =  1.00
     AMIN     =   0.10
     WC   =   100.;   INIMIX=   1;  MIXPRE=   1;  MAXMIX= -45

 Intra band minimization:
   WEIMIN = 0.0010     energy-eigenvalue tresh-hold
   EBREAK =  0.11E-07  absolut break condition
   DEPER  =   0.30     relativ break condition  

   TIME   =   0.40     timestep for ELM

  volume/ion in A,a.u.               =      11.38        76.83
  Fermi-wavevector in a.u.,A,eV,Ry     =   1.513744  2.860562 31.176681  2.291421
  Thomas-Fermi vector in A             =   2.623494
 
 Write flags
   LWAVE        =      F    write WAVECAR
   LDOWNSAMPLE  =      F    k-point downsampling of WAVECAR
   LCHARG       =      F    write CHGCAR
   LVTOT        =      F    write LOCPOT, total local potential
   LVHAR        =      F    write LOCPOT, Hartree potential only
   LELF         =      F    write electronic localiz. function (ELF)
   LORBIT       =     10    0 simple, 1 ext, 2 COOP (PROOUT), +10 PAW based schemes


 Dipole corrections
   LMONO  =      F    monopole corrections only (constant potential shift)
   LDIPOL =      F    correct potential (dipole corrections)
   IDIPOL =      0    1-x, 2-y, 3-z, 4-all directions 
   EPSILON=  1.0000000 bulk dielectric constant

 Exchange correlation treatment:
   GGA     =    --    GGA type
   LEXCH   =     8    internal setting for exchange type
   VOSKOWN=      0    Vosko Wilk Nusair interpolation
   LHFCALC =     F    Hartree Fock is set to
   LHFONE  =     F    Hartree Fock one center treatment
   AEXX    =    0.0000 exact exchange contribution

 Linear response parameters
   LEPSILON=     F    determine dielectric tensor
   LRPA    =     F    only Hartree local field effects (RPA)
   LNABLA  =     F    use nabla operator in PAW spheres
   LVEL    =     F    velocity operator in full k-point grid
   LINTERFAST=   F  fast interpolation
   KINTER  =     0    interpolate to denser k-point grid
   CSHIFT  =0.1000    complex shift for real part using Kramers Kronig
   OMEGAMAX=  -1.0    maximum frequency
   DEG_THRESHOLD= 0.2000000E-02 threshold for treating states as degnerate
   RTIME   =   -0.100 relaxation time in fs
  (WPLASMAI=    0.000 imaginary part of plasma frequency in eV, 0.658/RTIME)
   DFIELD  = 0.0000000 0.0000000 0.0000000 field for delta impulse in time
 
 Orbital magnetization related:
   ORBITALMAG=     F  switch on orbital magnetization
   LCHIMAG   =     F  perturbation theory with respect to B field
   DQ        =  0.001000  dq finite difference perturbation B field
   LLRAUG    =     F  two centre corrections for induced B field



--------------------------------------------------------------------------------------------------------


 conjugate gradient relaxation of ions
 charge density and potential will be updated during run
 spin polarized calculation
 RMM-DIIS sequential band-by-band and
  variant of blocked Davidson during initial phase
 perform sub-space diagonalisation
    before iterative eigenvector-optimisation
 modified Broyden-mixing scheme, WC =      100.0
 initial mixing is a Kerker type mixing with AMIX =  0.4000 and BMIX =      1.0000
 Hartree-type preconditioning will be used
 using additional bands           93
 real space projection scheme for non local part
 use partial core corrections
 calculate Harris-corrections to forces 
   (improved forces if not selfconsistent)
 use gradient corrections 
 use of overlap-Matrix (Vanderbilt PP)
 Methfessel and Paxton  Order N= 1 SIGMA  =   0.20


--------------------------------------------------------------------------------------------------------


  energy-cutoff  :      520.00
  volume of cell :      364.30
      direct lattice vectors                 reciprocal lattice vectors
     7.142000000  0.000000000  0.000000000     0.140016802  0.000000000  0.000000000
     0.000000000  7.142000000  0.000000000     0.000000000  0.140016802  0.000000000
     0.000000000  0.000000000  7.142000000     0.000000000  0.000000000  0.140016802

  length of vectors
     7.142000000  7.142000000  7.142000000     0.140016802  0.140016802  0.140016802


 
 k-points in units of 2pi/SCALE and weight: read from INCAR                         
   0.00000000  0.00000000  0.00000000       0.037
   0.16666667  0.00000000  0.00000000       0.074
   0.00000000  0.16666667  0.00000000       0.074
   0.16666667  0.16666667  0.00000000       0.074
  -0.16666667  0.16666667  0.00000000       0.074
   0.00000000  0.00000000  0.16666667       0.074
   0.16666667  0.00000000  0.16666667       0.074
  -0.16666667  0.00000000  0.16666667       0.074
   0.00000000  0.16666667  0.16666667       0.074
   0.16666667  0.16666667  0.16666667       0.074
  -0.16666667  0.16666667  0.16666667       0.074
   0.00000000 -0.16666667  0.16666667       0.074
   0.16666667 -0.16666667  0.16666667       0.074
  -0.16666667 -0.16666667  0.16666667       0.074
 
 k-points in reciprocal lattice and weights: read from INCAR                         
   0.00000000  0.00000000  0.00000000       0.037
   0.33333333  0.00000000  0.00000000       0.074
   0.00000000  0.33333333  0.00000000       0.074
   0.33333333  0.33333333  0.00000000       0.074
  -0.33333333  0.33333333  0.00000000       0.074
   0.00000000  0.00000000  0.33333333       0.074
   0.33333333  0.00000000  0.33333333       0.074
  -0.33333333  0.00000000  0.33333333       0.074
   0.00000000  0.33333333  0.33333333       0.074
   0.33333333  0.33333333  0.33333333       0.074
  -0.33333333  0.33333333  0.33333333       0.074
   0.00000000 -0.33333333  0.33333333       0.074
   0.33333333 -0.33333333  0.33333333       0.074
  -0.33333333 -0.33333333  0.33333333       0.074
 
 position of ions in fractional coordinates (direct lattice) 
   0.99997994  0.00714719  0.49999208
   0.00152133  0.24329150  0.74999901
   0.00001872  0.00711267  0.00002652
   0.99848141  0.24328323  0.25001141
   0.00009515  0.75533164  0.75001321
   0.24455041  0.00730451  0.24997142
   0.24503546  0.24273735  0.50145416
   0.24241976  0.49428580  0.74999764
   0.50001581  0.00832176  0.50001185
   0.75545374  0.00729827  0.74996970
   0.99991637  0.75535610  0.24999072
   0.24501958  0.24273675  0.99853973
   0.49998070  0.00831648  0.00001574
   0.75496891  0.24277300  0.49851574
   0.75497895  0.24273299  0.00147244
   0.75758438  0.49425257  0.25002571
   0.24650589  0.00266402  0.74999927
   0.00000413  0.49646510  0.49999914
   0.49954770  0.24721344  0.75000187
   0.99999800  0.49647793  0.99999502
   0.24571190  0.49620267  0.25000886
   0.24611012  0.75274775  0.50007838
   0.50044344  0.24721779  0.24999908
   0.50000657  0.49657546  0.49999304
   0.49953046  0.75422576  0.75000455
   0.75348036  0.00265192  0.25000123
   0.75428313  0.49620943  0.74999462
   0.24612076  0.75275014  0.99992434
   0.49999027  0.49657685  0.99999714
   0.50047206  0.75423425  0.24999677
   0.75389245  0.75274878  0.49992144
   0.75388212  0.75275687  0.00007818
 
 position of ions in cartesian coordinates  (Angst):
   7.14185676  0.05104526  3.57094343
   0.01086537  1.73758792  5.35649294
   0.00013370  0.05079870  0.00018938
   7.13115426  1.73752883  1.78558147
   0.00067960  5.39457859  5.35659436
   1.74657905  0.05216883  1.78529591
   1.75004326  1.73363015  3.58138563
   1.73136191  3.53018919  5.35648313
   3.57111293  0.05943402  3.57108460
   5.39545064  0.05212421  5.35628357
   7.14140271  5.39475329  1.78543372
   1.74992982  1.73362589  7.13157078
   3.57086215  0.05939629  0.00011239
   5.39198793  1.73388480  3.56039942
   5.39205964  1.73359899  0.01051618
   5.41066765  3.52995188  1.78568365
   1.76054506  0.01902640  5.35649477
   0.00002951  3.54575372  3.57099386
   3.56776965  1.76559842  5.35651336
   7.14198571  3.54584534  7.14196440
   1.75487436  3.54387948  1.78556326
   1.75771847  5.37612445  3.57155980
   3.57416707  1.76562946  1.78549341
   3.57104693  3.54654195  3.57095032
   3.56764655  5.38668036  5.35653247
   5.38135676  0.01894005  1.78550877
   5.38709010  3.54392777  5.35646159
   1.75779449  5.37614152  7.14145962
   3.57093053  3.54655185  7.14197961
   3.57437146  5.38674099  1.78547693
   5.38429989  5.37613179  3.57043894
   5.38422609  5.37618959  0.00055835
 


--------------------------------------------------------------------------------------------------------


 k-point  1 :   0.0000 0.0000 0.0000  plane waves:    9795
 k-point  2 :   0.3333 0.0000 0.0000  plane waves:    9826
 k-point  3 :   0.0000 0.3333 0.0000  plane waves:    9826
 k-point  4 :   0.3333 0.3333 0.0000  plane waves:    9795
 k-point  5 :  -0.3333 0.3333 0.0000  plane waves:    9795
 k-point  6 :   0.0000 0.0000 0.3333  plane waves:    9826
 k-point  7 :   0.3333 0.0000 0.3333  plane waves:    9795
 k-point  8 :  -0.3333 0.0000 0.3333  plane waves:    9795
 k-point  9 :   0.0000 0.3333 0.3333  plane waves:    9795
 k-point 10 :   0.3333 0.3333 0.3333  plane waves:    9823
 k-point 11 :  -0.3333 0.3333 0.3333  plane waves:    9823
 k-point 12 :   0.0000-0.3333 0.3333  plane waves:    9795
 k-point 13 :   0.3333-0.3333 0.3333  plane waves:    9823
 k-point 14 :  -0.3333-0.3333 0.3333  plane waves:    9823

 maximum and minimum number of plane-waves per node :      1243     1206

 maximum number of plane-waves:      9826
 maximum index in each direction: 
   IXMAX=   13   IYMAX=   13   IZMAX=   13
   IXMIN=  -13   IYMIN=  -13   IZMIN=  -13


 real space projection operators:
  total allocation   :      26234.44 KBytes
  max/ min on nodes  :       3400.88       2942.86


 parallel 3D FFT for wavefunctions:
    minimum data exchange during FFTs selected (reduces bandwidth)
 parallel 3D FFT for charge:
    minimum data exchange during FFTs selected (reduces bandwidth)


 total amount of memory used by VASP MPI-rank0    92902. kBytes
=======================================================================

   base      :      30000. kBytes
   nonlr-proj:       7756. kBytes
   fftplans  :       2563. kBytes
   grid      :       6379. kBytes
   one-center:        124. kBytes
   wavefun   :      46080. kBytes
 
     INWAV:  cpu time    0.0010: real time    0.0001
 Broyden mixing: mesh for mixing (old mesh)
   NGX = 27   NGY = 27   NGZ = 27
  (NGX  =108   NGY  =108   NGZ  =108)
  gives a total of  19683 points

 initial charge density was supplied:
 charge density of overlapping atoms calculated
 number of electron     288.0000000 magnetization     128.0000000
 keeping initial charge density in first step


--------------------------------------------------------------------------------------------------------


 Maximum index for non-local projection operator          931
 Maximum index for augmentation-charges         1026 (set IRDMAX)


--------------------------------------------------------------------------------------------------------


 First call to EWALD:  gamma=   0.248
 Maximum number of real-space cells 3x 3x 3
 Maximum number of reciprocal cells 3x 3x 3

    FEWALD:  cpu time    0.0030: real time    0.0045


--------------------------------------- Iteration      1(   1)  ---------------------------------------


    POTLOK:  cpu time    0.0890: real time    0.0956
    SETDIJ:  cpu time    0.0230: real time    0.0287
     EDDAV:  cpu time   15.9836: real time   16.0817
       DOS:  cpu time    0.0070: real time    0.0076
    --------------------------------------------
      LOOP:  cpu time   16.1026: real time   16.2136

 eigenvalue-minimisations  : 13299
 total energy-change (2. order) : 0.2667923E+04  (-0.1138829E+05)
 number of electron     288.0000000 magnetization     128.0000000
 augmentation part      288.0000000 magnetization     128.0000000

 Free energy of the ion-electron system (eV)
  ---------------------------------------------------
  alpha Z        PSCENC =      1737.85356999
  Ewald energy   TEWEN  =    -24090.51990471
  -Hartree energ DENC   =     -5987.35459483
  -exchange      EXHF   =         0.00000000
  -V(xc)+E(xc)   XCENC  =       631.18396322
  PAW double counting   =     24224.18874454   -25414.89041437
  entropy T*S    EENTRO =        -0.00493149
  eigenvalues    EBANDS =      4815.72927328
  atomic energy  EATOM  =     26751.73760169
  Solvation  Ediel_sol  =         0.00000000
  ---------------------------------------------------
  free energy    TOTEN  =      2667.92330732 eV

  energy without entropy =     2667.92823881  energy(sigma->0) =     2667.92495115


--------------------------------------------------------------------------------------------------------




--------------------------------------- Iteration      1(   2)  ---------------------------------------


     EDDAV:  cpu time   15.9976: real time   16.1009
       DOS:  cpu time    0.0080: real time    0.0085
    --------------------------------------------
      LOOP:  cpu time   16.0056: real time   16.1094

 eigenvalue-minimisations  : 13272
 total energy-change (2. order) :-0.2472271E+04  (-0.2255886E+04)
 number of electron     288.0000000 magnetization     128.0000000
 augmentation part      288.0000000 magnetization     128.0000000

 Free energy of the ion-electron system (eV)
  ---------------------------------------------------
  alpha Z        PSCENC =      1737.85356999
  Ewald energy   TEWEN  =    -24090.51990471
  -Hartree energ DENC   =     -5987.35459483
  -exchange      EXHF   =         0.00000000
  -V(xc)+E(xc)   XCENC  =       631.18396322
  PAW double counting   =     24224.18874454   -25414.89041437
  entropy T*S    EENTRO =        -0.00485514
  eigenvalues    EBANDS =      2343.45862983
  atomic energy  EATOM  =     26751.73760169
  Solvation  Ediel_sol  =         0.00000000
  ---------------------------------------------------
  free energy    TOTEN  =       195.65274022 eV

  energy without entropy =      195.65759536  energy(sigma->0) =      195.65435860


--------------------------------------------------------------------------------------------------------




--------------------------------------- Iteration      1(   3)  ---------------------------------------


     EDDAV:  cpu time   16.0376: real time   16.1126
       DOS:  cpu time    0.0100: real time    0.0095
    --------------------------------------------
      LOOP:  cpu time   16.0476: real time   16.1221

 eigenvalue-minimisations  : 13272
 total energy-change (2. order) :-0.3960137E+03  (-0.3143339E+03)
 number of electron     288.0000000 magnetization     128.0000000
 augmentation part      288.0000000 magnetization     128.0000000

 Free energy of the ion-electron system (eV)
  ---------------------------------------------------
  alpha Z        PSCENC =      1737.85356999
  Ewald energy   TEWEN  =    -24090.51990471
  -Hartree energ DENC   =     -5987.35459483
  -exchange      EXHF   =         0.00000000
  -V(xc)+E(xc)   XCENC  =       631.18396322
  PAW double counting   =     24224.18874454   -25414.89041437
  entropy T*S    EENTRO =         0.01102974
  eigenvalues    EBANDS =      1947.42907212
  atomic energy  EATOM  =     26751.73760169
  Solvation  Ediel_sol  =         0.00000000
  ---------------------------------------------------
  free energy    TOTEN  =      -200.36093261 eV

  energy without entropy =     -200.37196235  energy(sigma->0) =     -200.36460919


--------------------------------------------------------------------------------------------------------




--------------------------------------- Iteration      1(   4)  ---------------------------------------


     EDDAV:  cpu time   17.0334: real time   17.1330
       DOS:  cpu time    0.0100: real time    0.0099
    --------------------------------------------
      LOOP:  cpu time   17.0434: real time   17.1429

 eigenvalue-minimisations  : 14289
 total energy-change (2. order) :-0.2566146E+02  (-0.2481049E+02)
 number of electron     288.0000000 magnetization     128.0000000
 augmentation part      288.0000000 magnetization     128.0000000

 Free energy of the ion-electron system (eV)
  ---------------------------------------------------
  alpha Z        PSCENC =      1737.85356999
  Ewald energy   TEWEN  =    -24090.51990471
  -Hartree energ DENC   =     -5987.35459483
  -exchange      EXHF   =         0.00000000
  -V(xc)+E(xc)   XCENC  =       631.18396322
  PAW double counting   =     24224.18874454   -25414.89041437
  entropy T*S    EENTRO =         0.03385131
  eigenvalues    EBANDS =      1921.74478744
  atomic energy  EATOM  =     26751.73760169
  Solvation  Ediel_sol  =         0.00000000
  ---------------------------------------------------
  free energy    TOTEN  =      -226.02239571 eV

  energy without entropy =     -226.05624703  energy(sigma->0) =     -226.03367948


--------------------------------------------------------------------------------------------------------




--------------------------------------- Iteration      1(   5)  ---------------------------------------


     EDDAV:  cpu time   17.9473: real time   18.0225
       DOS:  cpu time    0.0110: real time    0.0107
    CHARGE:  cpu time    0.5579: real time    0.5598
    MIXING:  cpu time    0.0040: real time    0.0060
    --------------------------------------------
      LOOP:  cpu time   18.5202: real time   18.5990

 eigenvalue-minimisations  : 15288
 total energy-change (2. order) :-0.3238191E+00  (-0.3235386E+00)
 number of electron     288.0000029 magnetization      88.8846730
 augmentation part      145.9292272 magnetization      72.1046670

 Broyden mixing:
  rms(total) = 0.85433E+01    rms(broyden)= 0.85431E+01
  rms(prec ) = 0.11414E+02
  weight for this iteration     100.00

 Free energy of the ion-electron system (eV)
  ---------------------------------------------------
  alpha Z        PSCENC =      1737.85356999
  Ewald energy   TEWEN  =    -24090.51990471
  -Hartree energ DENC   =     -5987.35459483
  -exchange      EXHF   =         0.00000000
  -V(xc)+E(xc)   XCENC  =       631.18396322
  PAW double counting   =     24224.18874454   -25414.89041437
  entropy T*S    EENTRO =         0.03423597
  eigenvalues    EBANDS =      1921.42058372
  atomic energy  EATOM  =     26751.73760169
  Solvation  Ediel_sol  =         0.00000000
  ---------------------------------------------------
  free energy    TOTEN  =      -226.34621477 eV

  energy without entropy =     -226.38045075  energy(sigma->0) =     -226.35762676


--------------------------------------------------------------------------------------------------------




--------------------------------------- Iteration      1(   6)  ---------------------------------------


    POTLOK:  cpu time    0.0770: real time    0.0781
    SETDIJ:  cpu time    0.0180: real time    0.0180
    EDDIAG:  cpu time    2.0647: real time    2.0709
  RMM-DIIS:  cpu time   10.4714: real time   10.5477
    ORTHCH:  cpu time    0.4019: real time    0.4034
       DOS:  cpu time    0.0100: real time    0.0095
    CHARGE:  cpu time    0.5519: real time    0.5526
    MIXING:  cpu time    0.0030: real time    0.0036
    --------------------------------------------
      LOOP:  cpu time   13.5979: real time   13.6839

 eigenvalue-minimisations  : 13611
 total energy-change (2. order) :-0.1942957E+03  (-0.4725725E+02)
 number of electron     287.9999988 magnetization      79.8961394
 augmentation part      167.3561171 magnetization      66.9846297

 Broyden mixing:
  rms(total) = 0.15979E+02    rms(broyden)= 0.15978E+02
  rms(prec ) = 0.26090E+02
  weight for this iteration     100.00

 eigenvalues of (default mixing * dielectric matrix)
  average eigenvalue GAMMA=   0.1656
  0.1656

 Free energy of the ion-electron system (eV)
  ---------------------------------------------------
  alpha Z        PSCENC =      1737.85356999
  Ewald energy   TEWEN  =    -24090.51990471
  -Hartree energ DENC   =     -5163.78870612
  -exchange      EXHF   =         0.00000000
  -V(xc)+E(xc)   XCENC  =       556.78988719
  PAW double counting   =     25951.30325177   -27008.20344143
  entropy T*S    EENTRO =         0.02521608
  eigenvalues    EBANDS =       844.16061541
  atomic energy  EATOM  =     26751.73760169
  Solvation  Ediel_sol  =         0.00000000
  ---------------------------------------------------
  free energy    TOTEN  =      -420.64191014 eV

  energy without entropy =     -420.66712622  energy(sigma->0) =     -420.65031550


--------------------------------------------------------------------------------------------------------




--------------------------------------- Iteration      1(   7)  ---------------------------------------


    POTLOK:  cpu time    0.0770: real time    0.0780
    SETDIJ:  cpu time    0.0180: real time    0.0180
    EDDIAG:  cpu time    2.0667: real time    2.0715
  RMM-DIIS:  cpu time   10.1955: real time   10.2415
    ORTHCH:  cpu time    0.3859: real time    0.3883
       DOS:  cpu time    0.0110: real time    0.0099
    CHARGE:  cpu time    0.5299: real time    0.5316
    MIXING:  cpu time    0.0030: real time    0.0023
    --------------------------------------------
      LOOP:  cpu time   13.2870: real time   13.3411

 eigenvalue-minimisations  : 13272
 total energy-change (2. order) : 0.1510460E+03  (-0.1338223E+02)
 number of electron     288.0000012 magnetization      72.2303285
 augmentation part      173.2155133 magnetization      60.3445254

 Broyden mixing:
  rms(total) = 0.10361E+02    rms(broyden)= 0.10361E+02
  rms(prec ) = 0.17112E+02
  weight for this iteration     100.00

 eigenvalues of (default mixing * dielectric matrix)
  average eigenvalue GAMMA=   0.3051
  0.3051  0.3051

 Free energy of the ion-electron system (eV)
  ---------------------------------------------------
  alpha Z        PSCENC =      1737.85356999
  Ewald energy   TEWEN  =    -24090.51990471
  -Hartree energ DENC   =     -5276.48117436
  -exchange      EXHF   =         0.00000000
  -V(xc)+E(xc)   XCENC  =       555.36970677
  PAW double counting   =     26561.62064702   -27680.57829009
  entropy T*S    EENTRO =        -0.02736721
  eigenvalues    EBANDS =      1171.42927045
  atomic energy  EATOM  =     26751.73760169
  Solvation  Ediel_sol  =         0.00000000
  ---------------------------------------------------
  free energy    TOTEN  =      -269.59594045 eV

  energy without entropy =     -269.56857324  energy(sigma->0) =     -269.58681805


--------------------------------------------------------------------------------------------------------




--------------------------------------- Iteration      1(   8)  ---------------------------------------


    POTLOK:  cpu time    0.0780: real time    0.0784
    SETDIJ:  cpu time    0.0180: real time    0.0180
    EDDIAG:  cpu time    2.1067: real time    2.1185
  RMM-DIIS:  cpu time   10.2394: real time   10.2933
    ORTHCH:  cpu time    0.3859: real time    0.3914
       DOS:  cpu time    0.0100: real time    0.0097
    CHARGE:  cpu time    0.5339: real time    0.5354
    MIXING:  cpu time    0.0020: real time    0.0019
    --------------------------------------------
      LOOP:  cpu time   13.3740: real time   13.4467

 eigenvalue-minimisations  : 13272
 total energy-change (2. order) : 0.2493388E+02  (-0.7609886E+01)
 number of electron     288.0000022 magnetization      55.9276655
 augmentation part      169.8333392 magnetization      44.7659649

 Broyden mixing:
  rms(total) = 0.90861E+01    rms(broyden)= 0.90859E+01
  rms(prec ) = 0.15856E+02
  weight for this iteration     100.00

 eigenvalues of (default mixing * dielectric matrix)
  average eigenvalue GAMMA=   0.3814
  0.5172  0.5172  0.1097

 Free energy of the ion-electron system (eV)
  ---------------------------------------------------
  alpha Z        PSCENC =      1737.85356999
  Ewald energy   TEWEN  =    -24090.51990471
  -Hartree energ DENC   =     -5372.24224348
  -exchange      EXHF   =         0.00000000
  -V(xc)+E(xc)   XCENC  =       556.29816315
  PAW double counting   =     26988.71426189   -28148.84104708
  entropy T*S    EENTRO =        -0.02324644
  eigenvalues    EBANDS =      1332.36078679
  atomic energy  EATOM  =     26751.73760169
  Solvation  Ediel_sol  =         0.00000000
  ---------------------------------------------------
  free energy    TOTEN  =      -244.66205819 eV

  energy without entropy =     -244.63881176  energy(sigma->0) =     -244.65430938


--------------------------------------------------------------------------------------------------------




--------------------------------------- Iteration      1(   9)  ---------------------------------------


    POTLOK:  cpu time    0.0780: real time    0.0782
    SETDIJ:  cpu time    0.0180: real time    0.0181
    EDDIAG:  cpu time    2.0847: real time    2.0922
  RMM-DIIS:  cpu time   10.2904: real time   10.3405
    ORTHCH:  cpu time    0.3889: real time    0.3907
       DOS:  cpu time    0.0100: real time    0.0101
    CHARGE:  cpu time    0.5389: real time    0.5400
    MIXING:  cpu time    0.0020: real time    0.0024
    --------------------------------------------
      LOOP:  cpu time   13.4110: real time   13.4721

 eigenvalue-minimisations  : 13272
 total energy-change (2. order) : 0.1056525E+02  (-0.2940893E+01)
 number of electron     288.0000044 magnetization      49.7302529
 augmentation part      162.6099398 magnetization      38.4509423

 Broyden mixing:
  rms(total) = 0.77310E+01    rms(broyden)= 0.77307E+01
  rms(prec ) = 0.14121E+02
  weight for this iteration     100.00

 eigenvalues of (default mixing * dielectric matrix)
  average eigenvalue GAMMA=   0.4400
  1.0120  0.3177  0.3177  0.1127

 Free energy of the ion-electron system (eV)
  ---------------------------------------------------
  alpha Z        PSCENC =      1737.85356999
  Ewald energy   TEWEN  =    -24090.51990471
  -Hartree energ DENC   =     -5481.49665628
  -exchange      EXHF   =         0.00000000
  -V(xc)+E(xc)   XCENC  =       556.30505729
  PAW double counting   =     27679.38295030   -28884.50098245
  entropy T*S    EENTRO =        -0.02163142
  eigenvalues    EBANDS =      1497.16318838
  atomic energy  EATOM  =     26751.73760169
  Solvation  Ediel_sol  =         0.00000000
  ---------------------------------------------------
  free energy    TOTEN  =      -234.09680721 eV

  energy without entropy =     -234.07517579  energy(sigma->0) =     -234.08959674


--------------------------------------------------------------------------------------------------------




--------------------------------------- Iteration      1(  10)  ---------------------------------------


    POTLOK:  cpu time    0.0780: real time    0.0784
    SETDIJ:  cpu time    0.0190: real time    0.0180
    EDDIAG:  cpu time    2.0727: real time    2.0798
  RMM-DIIS:  cpu time   10.5284: real time   10.5675
    ORTHCH:  cpu time    0.3879: real time    0.3900
       DOS:  cpu time    0.0100: real time    0.0103
    CHARGE:  cpu time    0.5309: real time    0.5315
    MIXING:  cpu time    0.0020: real time    0.0021
    --------------------------------------------
      LOOP:  cpu time   13.6289: real time   13.6778

 eigenvalue-minimisations  : 13272
 total energy-change (2. order) : 0.1169081E+02  (-0.2127708E+01)
 number of electron     288.0000022 magnetization      41.5270448
 augmentation part      161.5252582 magnetization      32.2440286

 Broyden mixing:
  rms(total) = 0.46526E+01    rms(broyden)= 0.46524E+01
  rms(prec ) = 0.79579E+01
  weight for this iteration     100.00

 eigenvalues of (default mixing * dielectric matrix)
  average eigenvalue GAMMA=   0.4431
  1.2371  0.3719  0.3719  0.1280  0.1066

 Free energy of the ion-electron system (eV)
  ---------------------------------------------------
  alpha Z        PSCENC =      1737.85356999
  Ewald energy   TEWEN  =    -24090.51990471
  -Hartree energ DENC   =     -5484.36848663
  -exchange      EXHF   =         0.00000000
  -V(xc)+E(xc)   XCENC  =       555.40146827
  PAW double counting   =     27991.00431648   -29211.97892910
  entropy T*S    EENTRO =        -0.04667084
  eigenvalues    EBANDS =      1528.51103927
  atomic energy  EATOM  =     26751.73760169
  Solvation  Ediel_sol  =         0.00000000
  ---------------------------------------------------
  free energy    TOTEN  =      -222.40599558 eV

  energy without entropy =     -222.35932474  energy(sigma->0) =     -222.39043864


--------------------------------------------------------------------------------------------------------




--------------------------------------- Iteration      1(  11)  ---------------------------------------


    POTLOK:  cpu time    0.0780: real time    0.0783
    SETDIJ:  cpu time    0.0370: real time    0.0372
    EDDIAG:  cpu time    2.1357: real time    2.2036
  RMM-DIIS:  cpu time   10.3744: real time   10.4725
    ORTHCH:  cpu time    0.3879: real time    0.3901
       DOS:  cpu time    0.0110: real time    0.0102
    CHARGE:  cpu time    0.5269: real time    0.5289
    MIXING:  cpu time    0.0030: real time    0.0022
    --------------------------------------------
      LOOP:  cpu time   13.5539: real time   13.7230

 eigenvalue-minimisations  : 13272
 total energy-change (2. order) :-0.1271878E+02  (-0.1060654E+01)
 number of electron     288.0000021 magnetization      36.6550654
 augmentation part      162.9490711 magnetization      29.2865578

 Broyden mixing:
  rms(total) = 0.76168E+01    rms(broyden)= 0.76166E+01
  rms(prec ) = 0.14649E+02
  weight for this iteration     100.00

 eigenvalues of (default mixing * dielectric matrix)
  average eigenvalue GAMMA=   0.4009
  1.3071  0.3775  0.3775  0.1174  0.1130  0.1130

 Free energy of the ion-electron system (eV)
  ---------------------------------------------------
  alpha Z        PSCENC =      1737.85356999
  Ewald energy   TEWEN  =    -24090.51990471
  -Hartree energ DENC   =     -5444.72251163
  -exchange      EXHF   =         0.00000000
  -V(xc)+E(xc)   XCENC  =       551.48640627
  PAW double counting   =     28354.75429929   -29582.90135522
  entropy T*S    EENTRO =        -0.02999296
  eigenvalues    EBANDS =      1487.21711144
  atomic energy  EATOM  =     26751.73760169
  Solvation  Ediel_sol  =         0.00000000
  ---------------------------------------------------
  free energy    TOTEN  =      -235.12477584 eV

  energy without entropy =     -235.09478288  energy(sigma->0) =     -235.11477819


--------------------------------------------------------------------------------------------------------




--------------------------------------- Iteration      1(  12)  ---------------------------------------


    POTLOK:  cpu time    0.0770: real time    0.0783
    SETDIJ:  cpu time    0.0190: real time    0.0181
    EDDIAG:  cpu time    2.0797: real time    2.0846
  RMM-DIIS:  cpu time   10.1245: real time   10.1677
    ORTHCH:  cpu time    0.4059: real time    0.4076
       DOS:  cpu time    0.0100: real time    0.0100
    CHARGE:  cpu time    0.5249: real time    0.5251
    MIXING:  cpu time    0.0020: real time    0.0023
    --------------------------------------------
      LOOP:  cpu time   13.2430: real time   13.2936

 eigenvalue-minimisations  : 13272
 total energy-change (2. order) : 0.1400779E+02  (-0.7388925E+00)
 number of electron     288.0000017 magnetization      35.4878072
 augmentation part      164.4277503 magnetization      28.2176873

 Broyden mixing:
  rms(total) = 0.36604E+01    rms(broyden)= 0.36601E+01
  rms(prec ) = 0.65262E+01
  weight for this iteration     100.00

 eigenvalues of (default mixing * dielectric matrix)
  average eigenvalue GAMMA=   0.3804
  1.2418  0.4903  0.3070  0.3070  0.1329  0.1076  0.0761

 Free energy of the ion-electron system (eV)
  ---------------------------------------------------
  alpha Z        PSCENC =      1737.85356999
  Ewald energy   TEWEN  =    -24090.51990471
  -Hartree energ DENC   =     -5408.45239244
  -exchange      EXHF   =         0.00000000
  -V(xc)+E(xc)   XCENC  =       548.96593050
  PAW double counting   =     28555.18307982   -29784.41023820
  entropy T*S    EENTRO =        -0.01136587
  eigenvalues    EBANDS =      1468.53673608
  atomic energy  EATOM  =     26751.73760169
  Solvation  Ediel_sol  =         0.00000000
  ---------------------------------------------------
  free energy    TOTEN  =      -221.11698315 eV

  energy without entropy =     -221.10561728  energy(sigma->0) =     -221.11319453


--------------------------------------------------------------------------------------------------------




--------------------------------------- Iteration      1(  13)  ---------------------------------------


    POTLOK:  cpu time    0.0780: real time    0.0783
    SETDIJ:  cpu time    0.0190: real time    0.0181
    EDDIAG:  cpu time    2.0547: real time    2.0565
  RMM-DIIS:  cpu time   10.1085: real time   10.1246
    ORTHCH:  cpu time    0.3869: real time    0.3875
       DOS:  cpu time    0.0100: real time    0.0102
    CHARGE:  cpu time    0.5429: real time    0.5429
    MIXING:  cpu time    0.0030: real time    0.0024
    --------------------------------------------
      LOOP:  cpu time   13.2030: real time   13.2205

 eigenvalue-minimisations  : 13272
 total energy-change (2. order) : 0.2909960E+01  (-0.2747418E+00)
 number of electron     288.0000016 magnetization      35.7151220
 augmentation part      164.5928488 magnetization      28.2927472

 Broyden mixing:
  rms(total) = 0.25035E+01    rms(broyden)= 0.25034E+01
  rms(prec ) = 0.45880E+01
  weight for this iteration     100.00

 eigenvalues of (default mixing * dielectric matrix)
  average eigenvalue GAMMA=   0.3686
  1.0168  0.7997  0.3520  0.3520  0.1211  0.1211  0.1094  0.0767

 Free energy of the ion-electron system (eV)
  ---------------------------------------------------
  alpha Z        PSCENC =      1737.85356999
  Ewald energy   TEWEN  =    -24090.51990471
  -Hartree energ DENC   =     -5408.49538942
  -exchange      EXHF   =         0.00000000
  -V(xc)+E(xc)   XCENC  =       549.08184720
  PAW double counting   =     28620.33650166   -29850.16359276
  entropy T*S    EENTRO =        -0.03216342
  eigenvalues    EBANDS =      1471.99450681
  atomic energy  EATOM  =     26751.73760169
  Solvation  Ediel_sol  =         0.00000000
  ---------------------------------------------------
  free energy    TOTEN  =      -218.20702296 eV

  energy without entropy =     -218.17485954  energy(sigma->0) =     -218.19630182


--------------------------------------------------------------------------------------------------------




--------------------------------------- Iteration      1(  14)  ---------------------------------------


    POTLOK:  cpu time    0.0770: real time    0.0778
    SETDIJ:  cpu time    0.0190: real time    0.0180
    EDDIAG:  cpu time    2.0597: real time    2.0613
  RMM-DIIS:  cpu time   10.0745: real time   10.0972
    ORTHCH:  cpu time    0.3869: real time    0.3880
       DOS:  cpu time    0.0110: real time    0.0104
    CHARGE:  cpu time    0.5269: real time    0.5275
    MIXING:  cpu time    0.0030: real time    0.0024
    --------------------------------------------
      LOOP:  cpu time   13.1580: real time   13.1826

 eigenvalue-minimisations  : 13272
 total energy-change (2. order) : 0.2132925E+01  (-0.7897386E-01)
 number of electron     288.0000021 magnetization      36.2009290
 augmentation part      164.3792691 magnetization      28.9293783

 Broyden mixing:
  rms(total) = 0.15019E+01    rms(broyden)= 0.15018E+01
  rms(prec ) = 0.22469E+01
  weight for this iteration     100.00

 eigenvalues of (default mixing * dielectric matrix)
  average eigenvalue GAMMA=   0.3495
  0.8728  0.8728  0.3547  0.3547  0.2736  0.1206  0.1206  0.1058  0.0699

 Free energy of the ion-electron system (eV)
  ---------------------------------------------------
  alpha Z        PSCENC =      1737.85356999
  Ewald energy   TEWEN  =    -24090.51990471
  -Hartree energ DENC   =     -5412.97529674
  -exchange      EXHF   =         0.00000000
  -V(xc)+E(xc)   XCENC  =       549.78518737
  PAW double counting   =     28632.59715262   -29861.66777481
  entropy T*S    EENTRO =        -0.03896363
  eigenvalues    EBANDS =      1477.15432977
  atomic energy  EATOM  =     26751.73760169
  Solvation  Ediel_sol  =         0.00000000
  ---------------------------------------------------
  free energy    TOTEN  =      -216.07409845 eV

  energy without entropy =     -216.03513482  energy(sigma->0) =     -216.06111057


--------------------------------------------------------------------------------------------------------




--------------------------------------- Iteration      1(  15)  ---------------------------------------


    POTLOK:  cpu time    0.0770: real time    0.0780
    SETDIJ:  cpu time    0.0190: real time    0.0181
    EDDIAG:  cpu time    2.0507: real time    2.0518
  RMM-DIIS:  cpu time   10.1415: real time   10.2136
    ORTHCH:  cpu time    0.3869: real time    0.3907
       DOS:  cpu time    0.0120: real time    0.0105
    CHARGE:  cpu time    0.5409: real time    0.5433
    MIXING:  cpu time    0.0030: real time    0.0026
    --------------------------------------------
      LOOP:  cpu time   13.2310: real time   13.3086

 eigenvalue-minimisations  : 13272
 total energy-change (2. order) :-0.3808922E+00  (-0.6088272E-01)
 number of electron     288.0000020 magnetization      37.1586190
 augmentation part      164.4427235 magnetization      30.0864280

 Broyden mixing:
  rms(total) = 0.16135E+01    rms(broyden)= 0.16135E+01
  rms(prec ) = 0.24879E+01
  weight for this iteration     100.00

 eigenvalues of (default mixing * dielectric matrix)
  average eigenvalue GAMMA=   0.3611
  1.0095  0.7255  0.7255  0.3060  0.3060  0.1272  0.1272  0.1101  0.1023  0.0713

 Free energy of the ion-electron system (eV)
  ---------------------------------------------------
  alpha Z        PSCENC =      1737.85356999
  Ewald energy   TEWEN  =    -24090.51990471
  -Hartree energ DENC   =     -5412.01282414
  -exchange      EXHF   =         0.00000000
  -V(xc)+E(xc)   XCENC  =       550.52375180
  PAW double counting   =     28663.82439664   -29892.18459120
  entropy T*S    EENTRO =        -0.05707189
  eigenvalues    EBANDS =      1474.38008118
  atomic energy  EATOM  =     26751.73760169
  Solvation  Ediel_sol  =         0.00000000
  ---------------------------------------------------
  free energy    TOTEN  =      -216.45499064 eV

  energy without entropy =     -216.39791875  energy(sigma->0) =     -216.43596668


--------------------------------------------------------------------------------------------------------




--------------------------------------- Iteration      1(  16)  ---------------------------------------


    POTLOK:  cpu time    0.0780: real time    0.0786
    SETDIJ:  cpu time    0.0180: real time    0.0180
    EDDIAG:  cpu time    2.0567: real time    2.0603
  RMM-DIIS:  cpu time   10.1515: real time   10.1911
    ORTHCH:  cpu time    0.3879: real time    0.3947
       DOS:  cpu time    0.0100: real time    0.0103
    CHARGE:  cpu time    0.5279: real time    0.5348
    MIXING:  cpu time    0.0030: real time    0.0033
    --------------------------------------------
      LOOP:  cpu time   13.2330: real time   13.2913

 eigenvalue-minimisations  : 13272
 total energy-change (2. order) :-0.4715952E+00  (-0.4247241E-01)
 number of electron     288.0000022 magnetization      37.9148797
 augmentation part      164.7257888 magnetization      30.7387339

 Broyden mixing:
  rms(total) = 0.14659E+01    rms(broyden)= 0.14659E+01
  rms(prec ) = 0.22612E+01
  weight for this iteration     100.00

 eigenvalues of (default mixing * dielectric matrix)
  average eigenvalue GAMMA=   0.3531
  0.9734  0.7891  0.7891  0.3094  0.3094  0.1560  0.1560  0.1149  0.1149  0.1016
  0.0702

 Free energy of the ion-electron system (eV)
  ---------------------------------------------------
  alpha Z        PSCENC =      1737.85356999
  Ewald energy   TEWEN  =    -24090.51990471
  -Hartree energ DENC   =     -5407.53701262
  -exchange      EXHF   =         0.00000000
  -V(xc)+E(xc)   XCENC  =       551.38402623
  PAW double counting   =     28731.65017582   -29960.45398182
  entropy T*S    EENTRO =        -0.01792030
  eigenvalues    EBANDS =      1468.97685984
  atomic energy  EATOM  =     26751.73760169
  Solvation  Ediel_sol  =         0.00000000
  ---------------------------------------------------
  free energy    TOTEN  =      -216.92658589 eV

  energy without entropy =     -216.90866558  energy(sigma->0) =     -216.92061245


--------------------------------------------------------------------------------------------------------




--------------------------------------- Iteration      1(  17)  ---------------------------------------


    POTLOK:  cpu time    0.0770: real time    0.0787
    SETDIJ:  cpu time    0.0180: real time    0.0180
    EDDIAG:  cpu time    2.1267: real time    2.1777
  RMM-DIIS:  cpu time   10.3624: real time   10.5175
    ORTHCH:  cpu time    0.3889: real time    0.3915
       DOS:  cpu time    0.0110: real time    0.0103
    CHARGE:  cpu time    0.5259: real time    0.5277
    MIXING:  cpu time    0.0030: real time    0.0031
    --------------------------------------------
      LOOP:  cpu time   13.5129: real time   13.7245

 eigenvalue-minimisations  : 13272
 total energy-change (2. order) : 0.2861001E+00  (-0.2277112E-01)
 number of electron     288.0000019 magnetization      39.3753572
 augmentation part      164.8005593 magnetization      32.1756858

 Broyden mixing:
  rms(total) = 0.95505E+00    rms(broyden)= 0.95502E+00
  rms(prec ) = 0.11728E+01
  weight for this iteration     100.00

 eigenvalues of (default mixing * dielectric matrix)
  average eigenvalue GAMMA=   0.3803
  0.9707  0.9707  0.9084  0.4421  0.3140  0.3140  0.1421  0.1175  0.1175  0.1059
  0.0706  0.0903

 Free energy of the ion-electron system (eV)
  ---------------------------------------------------
  alpha Z        PSCENC =      1737.85356999
  Ewald energy   TEWEN  =    -24090.51990471
  -Hartree energ DENC   =     -5406.09048301
  -exchange      EXHF   =         0.00000000
  -V(xc)+E(xc)   XCENC  =       551.97599559
  PAW double counting   =     28760.25006874   -29989.19487663
  entropy T*S    EENTRO =        -0.02568621
  eigenvalues    EBANDS =      1467.37322872
  atomic energy  EATOM  =     26751.73760169
  Solvation  Ediel_sol  =         0.00000000
  ---------------------------------------------------
  free energy    TOTEN  =      -216.64048583 eV

  energy without entropy =     -216.61479962  energy(sigma->0) =     -216.63192376


--------------------------------------------------------------------------------------------------------




--------------------------------------- Iteration      1(  18)  ---------------------------------------


    POTLOK:  cpu time    0.0780: real time    0.0785
    SETDIJ:  cpu time    0.0180: real time    0.0182
    EDDIAG:  cpu time    2.0757: real time    2.0867
  RMM-DIIS:  cpu time   10.2664: real time   10.3201
    ORTHCH:  cpu time    0.3889: real time    0.3900
       DOS:  cpu time    0.0100: real time    0.0104
    CHARGE:  cpu time    0.5399: real time    0.5416
    MIXING:  cpu time    0.0040: real time    0.0032
    --------------------------------------------
      LOOP:  cpu time   13.3810: real time   13.4487

 eigenvalue-minimisations  : 13272
 total energy-change (2. order) :-0.3783921E+00  (-0.1346424E-01)
 number of electron     288.0000018 magnetization      40.4505090
 augmentation part      164.7993573 magnetization      33.1366737

 Broyden mixing:
  rms(total) = 0.10093E+01    rms(broyden)= 0.10092E+01
  rms(prec ) = 0.12993E+01
  weight for this iteration     100.00

 eigenvalues of (default mixing * dielectric matrix)
  average eigenvalue GAMMA=   0.3697
  0.9881  0.9881  0.9178  0.4324  0.3278  0.3278  0.1906  0.1225  0.1225  0.1257
  0.1043  0.0704  0.0886

 Free energy of the ion-electron system (eV)
  ---------------------------------------------------
  alpha Z        PSCENC =      1737.85356999
  Ewald energy   TEWEN  =    -24090.51990471
  -Hartree energ DENC   =     -5407.35190126
  -exchange      EXHF   =         0.00000000
  -V(xc)+E(xc)   XCENC  =       553.13164424
  PAW double counting   =     28797.46097624   -30026.91139240
  entropy T*S    EENTRO =        -0.00579342
  eigenvalues    EBANDS =      1467.58632173
  atomic energy  EATOM  =     26751.73760169
  Solvation  Ediel_sol  =         0.00000000
  ---------------------------------------------------
  free energy    TOTEN  =      -217.01887790 eV

  energy without entropy =     -217.01308449  energy(sigma->0) =     -217.01694676


--------------------------------------------------------------------------------------------------------




--------------------------------------- Iteration      1(  19)  ---------------------------------------


    POTLOK:  cpu time    0.0770: real time    0.0781
    SETDIJ:  cpu time    0.0190: real time    0.0180
    EDDIAG:  cpu time    2.0687: real time    2.0745
  RMM-DIIS:  cpu time   10.2114: real time   10.2829
    ORTHCH:  cpu time    0.3889: real time    0.3905
       DOS:  cpu time    0.0110: real time    0.0105
    CHARGE:  cpu time    0.5229: real time    0.5248
    MIXING:  cpu time    0.0040: real time    0.0032
    --------------------------------------------
      LOOP:  cpu time   13.3030: real time   13.3825

 eigenvalue-minimisations  : 13272
 total energy-change (2. order) :-0.1188117E+00  (-0.9221976E-02)
 number of electron     288.0000019 magnetization      41.1297039
 augmentation part      164.7866666 magnetization      33.6461475

 Broyden mixing:
  rms(total) = 0.92403E+00    rms(broyden)= 0.92401E+00
  rms(prec ) = 0.10438E+01
  weight for this iteration     100.00

 eigenvalues of (default mixing * dielectric matrix)
  average eigenvalue GAMMA=   0.3826
  0.9820  0.9820  0.9578  0.5351  0.5351  0.3064  0.3064  0.1292  0.1292  0.1169
  0.1169  0.1031  0.0705  0.0868

 Free energy of the ion-electron system (eV)
  ---------------------------------------------------
  alpha Z        PSCENC =      1737.85356999
  Ewald energy   TEWEN  =    -24090.51990471
  -Hartree energ DENC   =     -5408.75365478
  -exchange      EXHF   =         0.00000000
  -V(xc)+E(xc)   XCENC  =       554.00084494
  PAW double counting   =     28826.88493882   -30056.92941397
  entropy T*S    EENTRO =         0.00764437
  eigenvalues    EBANDS =      1468.58068407
  atomic energy  EATOM  =     26751.73760169
  Solvation  Ediel_sol  =         0.00000000
  ---------------------------------------------------
  free energy    TOTEN  =      -217.13768958 eV

  energy without entropy =     -217.14533395  energy(sigma->0) =     -217.14023770


--------------------------------------------------------------------------------------------------------




--------------------------------------- Iteration      1(  20)  ---------------------------------------


    POTLOK:  cpu time    0.0770: real time    0.0781
    SETDIJ:  cpu time    0.0190: real time    0.0182
    EDDIAG:  cpu time    2.1227: real time    2.1330
  RMM-DIIS:  cpu time   10.2074: real time   10.2878
    ORTHCH:  cpu time    0.4169: real time    0.4175
       DOS:  cpu time    0.0100: real time    0.0100
    CHARGE:  cpu time    0.5229: real time    0.5234
    MIXING:  cpu time    0.0040: real time    0.0036
    --------------------------------------------
      LOOP:  cpu time   13.3800: real time   13.4717

 eigenvalue-minimisations  : 13272
 total energy-change (2. order) :-0.1470763E+00  (-0.2646481E-02)
 number of electron     288.0000019 magnetization      41.4415602
 augmentation part      164.8168028 magnetization      33.8902441

 Broyden mixing:
  rms(total) = 0.92865E+00    rms(broyden)= 0.92864E+00
  rms(prec ) = 0.10683E+01
  weight for this iteration     100.00

 eigenvalues of (default mixing * dielectric matrix)
  average eigenvalue GAMMA=   0.3653
  0.9814  0.9814  0.9624  0.5422  0.5422  0.3024  0.3024  0.1300  0.1300  0.1133
  0.1133  0.1171  0.1027  0.0704  0.0882

 Free energy of the ion-electron system (eV)
  ---------------------------------------------------
  alpha Z        PSCENC =      1737.85356999
  Ewald energy   TEWEN  =    -24090.51990471
  -Hartree energ DENC   =     -5408.05959234
  -exchange      EXHF   =         0.00000000
  -V(xc)+E(xc)   XCENC  =       554.34029535
  PAW double counting   =     28853.92987127   -30084.70501065
  entropy T*S    EENTRO =         0.02032204
  eigenvalues    EBANDS =      1468.11808152
  atomic energy  EATOM  =     26751.73760169
  Solvation  Ediel_sol  =         0.00000000
  ---------------------------------------------------
  free energy    TOTEN  =      -217.28476583 eV

  energy without entropy =     -217.30508787  energy(sigma->0) =     -217.29153985


--------------------------------------------------------------------------------------------------------




--------------------------------------- Iteration      1(  21)  ---------------------------------------


    POTLOK:  cpu time    0.0780: real time    0.0787
    SETDIJ:  cpu time    0.0190: real time    0.0181
    EDDIAG:  cpu time    2.0637: real time    2.0686
  RMM-DIIS:  cpu time   10.1725: real time   10.2071
    ORTHCH:  cpu time    0.3909: real time    0.3924
       DOS:  cpu time    0.0110: real time    0.0105
    CHARGE:  cpu time    0.5249: real time    0.5256
    MIXING:  cpu time    0.0040: real time    0.0036
    --------------------------------------------
      LOOP:  cpu time   13.2640: real time   13.3045

 eigenvalue-minimisations  : 13272
 total energy-change (2. order) :-0.6073953E-01  (-0.1526707E-02)
 number of electron     288.0000019 magnetization      41.7089255
 augmentation part      164.8435982 magnetization      34.0697919

 Broyden mixing:
  rms(total) = 0.91911E+00    rms(broyden)= 0.91911E+00
  rms(prec ) = 0.10517E+01
  weight for this iteration     100.00

 eigenvalues of (default mixing * dielectric matrix)
  average eigenvalue GAMMA=   0.3602
  1.0052  1.0052  0.9642  0.5455  0.5455  0.3065  0.3065  0.2026  0.1341  0.1341
  0.1172  0.1172  0.1181  0.0705  0.1027  0.0875

 Free energy of the ion-electron system (eV)
  ---------------------------------------------------
  alpha Z        PSCENC =      1737.85356999
  Ewald energy   TEWEN  =    -24090.51990471
  -Hartree energ DENC   =     -5407.85556557
  -exchange      EXHF   =         0.00000000
  -V(xc)+E(xc)   XCENC  =       554.49400398
  PAW double counting   =     28866.08726183   -30097.19129741
  entropy T*S    EENTRO =         0.02465655
  eigenvalues    EBANDS =      1468.02416828
  atomic energy  EATOM  =     26751.73760169
  Solvation  Ediel_sol  =         0.00000000
  ---------------------------------------------------
  free energy    TOTEN  =      -217.34550536 eV

  energy without entropy =     -217.37016191  energy(sigma->0) =     -217.35372421


--------------------------------------------------------------------------------------------------------




--------------------------------------- Iteration      1(  22)  ---------------------------------------


    POTLOK:  cpu time    0.0950: real time    0.0958
    SETDIJ:  cpu time    0.0190: real time    0.0182
    EDDIAG:  cpu time    2.0677: real time    2.0720
  RMM-DIIS:  cpu time   10.1914: real time   10.2252
    ORTHCH:  cpu time    0.3889: real time    0.3901
       DOS:  cpu time    0.0100: real time    0.0104
    CHARGE:  cpu time    0.5289: real time    0.5295
    MIXING:  cpu time    0.0050: real time    0.0039
    --------------------------------------------
      LOOP:  cpu time   13.3060: real time   13.3452

 eigenvalue-minimisations  : 13272
 total energy-change (2. order) :-0.5702361E-01  (-0.4756487E-03)
 number of electron     288.0000019 magnetization      42.2305225
 augmentation part      164.8532730 magnetization      34.5340291

 Broyden mixing:
  rms(total) = 0.91889E+00    rms(broyden)= 0.91889E+00
  rms(prec ) = 0.10437E+01
  weight for this iteration     100.00

 eigenvalues of (default mixing * dielectric matrix)
  average eigenvalue GAMMA=   0.3741
  1.0606  1.0606  0.9699  0.5466  0.5584  0.5584  0.3072  0.3072  0.1435  0.1435
  0.1206  0.1206  0.1203  0.1027  0.0705  0.0881  0.0809

 Free energy of the ion-electron system (eV)
  ---------------------------------------------------
  alpha Z        PSCENC =      1737.85356999
  Ewald energy   TEWEN  =    -24090.51990471
  -Hartree energ DENC   =     -5407.95635834
  -exchange      EXHF   =         0.00000000
  -V(xc)+E(xc)   XCENC  =       554.66551610
  PAW double counting   =     28873.90535652   -30105.21382036
  entropy T*S    EENTRO =         0.02922593
  eigenvalues    EBANDS =      1468.09628422
  atomic energy  EATOM  =     26751.73760169
  Solvation  Ediel_sol  =         0.00000000
  ---------------------------------------------------
  free energy    TOTEN  =      -217.40252897 eV

  energy without entropy =     -217.43175489  energy(sigma->0) =     -217.41227094


--------------------------------------------------------------------------------------------------------




--------------------------------------- Iteration      1(  23)  ---------------------------------------


    POTLOK:  cpu time    0.0770: real time    0.0779
    SETDIJ:  cpu time    0.0180: real time    0.0180
    EDDIAG:  cpu time    2.0827: real time    2.0918
  RMM-DIIS:  cpu time   10.2024: real time   10.2305
    ORTHCH:  cpu time    0.3899: real time    0.3908
       DOS:  cpu time    0.0110: real time    0.0103
    CHARGE:  cpu time    0.5369: real time    0.5380
    MIXING:  cpu time    0.0040: real time    0.0040
    --------------------------------------------
      LOOP:  cpu time   13.3220: real time   13.3613

 eigenvalue-minimisations  : 13272
 total energy-change (2. order) :-0.9926375E-01  (-0.5509468E-03)
 number of electron     288.0000018 magnetization      43.9245793
 augmentation part      164.8618985 magnetization      36.1540991

 Broyden mixing:
  rms(total) = 0.90167E+00    rms(broyden)= 0.90167E+00
  rms(prec ) = 0.10141E+01
  weight for this iteration     100.00

 eigenvalues of (default mixing * dielectric matrix)
  average eigenvalue GAMMA=   0.5086
  1.7109  1.7109  0.9996  0.9996  0.9738  0.5758  0.5758  0.3106  0.3106  0.1396
  0.1396  0.1194  0.1194  0.1220  0.0705  0.1028  0.0874  0.0856

 Free energy of the ion-electron system (eV)
  ---------------------------------------------------
  alpha Z        PSCENC =      1737.85356999
  Ewald energy   TEWEN  =    -24090.51990471
  -Hartree energ DENC   =     -5408.28853540
  -exchange      EXHF   =         0.00000000
  -V(xc)+E(xc)   XCENC  =       555.03631790
  PAW double counting   =     28887.40245268   -30119.05335587
  entropy T*S    EENTRO =         0.03785021
  eigenvalues    EBANDS =      1468.29221078
  atomic energy  EATOM  =     26751.73760169
  Solvation  Ediel_sol  =         0.00000000
  ---------------------------------------------------
  free energy    TOTEN  =      -217.50179272 eV

  energy without entropy =     -217.53964293  energy(sigma->0) =     -217.51440946


--------------------------------------------------------------------------------------------------------




--------------------------------------- Iteration      1(  24)  ---------------------------------------


    POTLOK:  cpu time    0.0780: real time    0.0783
    SETDIJ:  cpu time    0.0190: real time    0.0182
    EDDIAG:  cpu time    2.0627: real time    2.0658
  RMM-DIIS:  cpu time   10.2214: real time   10.3003
    ORTHCH:  cpu time    0.3929: real time    0.3952
       DOS:  cpu time    0.0100: real time    0.0102
    CHARGE:  cpu time    0.5299: real time    0.5310
    MIXING:  cpu time    0.0050: real time    0.0042
    --------------------------------------------
      LOOP:  cpu time   13.3190: real time   13.4033

 eigenvalue-minimisations  : 13272
 total energy-change (2. order) :-0.3792709E+00  (-0.6188664E-02)
 number of electron     288.0000018 magnetization      46.5165630
 augmentation part      164.9076452 magnetization      38.5256235

 Broyden mixing:
  rms(total) = 0.88585E+00    rms(broyden)= 0.88584E+00
  rms(prec ) = 0.11416E+01
  weight for this iteration     100.00

 eigenvalues of (default mixing * dielectric matrix)
  average eigenvalue GAMMA=   0.5346
  2.0272  2.0272  1.0593  1.0593  0.9899  0.5885  0.5885  0.3102  0.3102  0.2124
  0.1434  0.1350  0.1194  0.1194  0.1224  0.0705  0.1028  0.0873  0.0853

 Free energy of the ion-electron system (eV)
  ---------------------------------------------------
  alpha Z        PSCENC =      1737.85356999
  Ewald energy   TEWEN  =    -24090.51990471
  -Hartree energ DENC   =     -5409.03162120
  -exchange      EXHF   =         0.00000000
  -V(xc)+E(xc)   XCENC  =       556.33010237
  PAW double counting   =     28935.66024526   -30168.38794337
  entropy T*S    EENTRO =         0.05107361
  eigenvalues    EBANDS =      1468.42581273
  atomic energy  EATOM  =     26751.73760169
  Solvation  Ediel_sol  =         0.00000000
  ---------------------------------------------------
  free energy    TOTEN  =      -217.88106362 eV

  energy without entropy =     -217.93213724  energy(sigma->0) =     -217.89808816


--------------------------------------------------------------------------------------------------------




[...]
  0.002  -1.113  -0.000   0.000  -0.000   0.019   0.273   0.000  -0.000   0.000  -0.000   0.000   0.000  -0.012   0.001   0.000
  0.000  -0.000  -1.251   0.006   0.042   0.000   0.000   0.348  -0.001  -0.060   0.002   0.000  -0.007  -0.000   0.000   0.001
  0.000   0.000  -0.000  -1.128   0.001  -0.000  -0.000  -0.001   0.245  -0.017   0.020  -0.002   0.002  -0.000   0.000  -0.000
 -0.000  -0.000   0.044   0.007  -1.268   0.000   0.000  -0.060  -0.017   0.381   0.030  -0.004   0.017  -0.000  -0.000  -0.002
  0.000   0.000   0.004  -0.002  -0.026  -0.000  -0.000   0.002   0.020   0.030  -0.337   0.110  -0.012  -0.000   0.000  -0.000
 -0.000  -0.000  -0.003   0.008   0.016   0.000   0.000   0.000  -0.002  -0.004   0.110  -0.019  -0.000   0.000  -0.000   0.000
  0.000  -0.000   0.011  -0.001  -0.002  -0.000   0.000  -0.007   0.002   0.017  -0.012  -0.000  -0.028  -0.000  -0.000   0.006
  0.001   0.008  -0.000   0.000  -0.000   0.000  -0.012  -0.000  -0.000  -0.000  -0.000   0.000  -0.000  -0.022   0.001   0.000
 -0.016  -0.003  -0.000  -0.000   0.000   0.010   0.001   0.000   0.000  -0.000   0.000  -0.000  -0.000   0.001  -0.028   0.000
 -0.000  -0.000   0.000   0.000   0.003   0.000   0.000   0.001  -0.000  -0.002  -0.000   0.000   0.006   0.000   0.000  -0.001
  0.000  -0.003  -0.000  -0.000   0.000  -0.000   0.002   0.000   0.000  -0.000   0.000  -0.000   0.000   0.006   0.000  -0.000
  0.000   0.000   0.000   0.000  -0.000  -0.001  -0.000  -0.000  -0.000   0.000  -0.000  -0.000   0.000   0.000   0.007  -0.000


------------------------ aborting loop because EDIFF is reached ----------------------------------------


 


 total charge     
 
# of ion       s       p       d       tot
------------------------------------------
    1        0.473   0.499   6.174   7.146
    2        0.472   0.501   6.188   7.161
    3        0.473   0.499   6.174   7.146
    4        0.472   0.501   6.188   7.161
    5        0.470   0.497   6.172   7.139
    6        0.480   0.508   6.197   7.186
    7        0.473   0.502   6.175   7.150
    8        0.483   0.509   6.177   7.170
    9        0.472   0.501   6.181   7.154
   10        0.480   0.508   6.197   7.186
   11        0.470   0.497   6.172   7.139
   12        0.473   0.502   6.175   7.150
   13        0.472   0.501   6.181   7.154
   14        0.473   0.502   6.175   7.150
   15        0.473   0.502   6.175   7.150
   16        0.483   0.509   6.177   7.170
   17        0.503   0.509   8.302   9.314
   18        0.513   0.520   8.308   9.341
   19        0.513   0.522   8.307   9.342
   20        0.513   0.520   8.308   9.341
   21        0.499   0.501   8.309   9.310
   22        0.510   0.513   8.313   9.336
   23        0.513   0.522   8.306   9.342
   24        0.509   0.509   8.318   9.337
   25        0.510   0.509   8.319   9.338
   26        0.503   0.509   8.302   9.314
   27        0.499   0.501   8.310   9.310
   28        0.510   0.513   8.313   9.336
   29        0.509   0.509   8.318   9.337
   30        0.510   0.509   8.319   9.338
   31        0.510   0.513   8.313   9.336
   32        0.510   0.513   8.313   9.336
--------------------------------------------------
tot         15.728  16.230 231.856 263.814
 


 magnetization (x)
 
# of ion       s       p       d       tot
------------------------------------------
    1       -0.006  -0.031   2.720   2.683
    2       -0.006  -0.034   2.683   2.643
    3       -0.006  -0.031   2.720   2.683
    4       -0.006  -0.034   2.683   2.643
    5        0.002  -0.019   2.737   2.720
    6       -0.009  -0.031   2.648   2.608
    7       -0.002  -0.027   2.724   2.695
    8       -0.002  -0.016   2.731   2.713
    9        0.003  -0.018   2.717   2.702
   10       -0.009  -0.031   2.648   2.608
   11        0.002  -0.019   2.737   2.720
   12       -0.002  -0.027   2.724   2.695
   13        0.003  -0.018   2.717   2.702
   14       -0.002  -0.027   2.724   2.695
   15       -0.002  -0.027   2.724   2.695
   16       -0.002  -0.016   2.731   2.713
   17       -0.021  -0.053   0.785   0.710
   18       -0.025  -0.053   0.773   0.695
   19       -0.025  -0.053   0.781   0.703
   20       -0.025  -0.053   0.773   0.695
   21       -0.014  -0.041   0.759   0.704
   22       -0.022  -0.046   0.745   0.677
   23       -0.025  -0.053   0.781   0.703
   24       -0.018  -0.038   0.735   0.679
   25       -0.018  -0.037   0.726   0.671
   26       -0.021  -0.053   0.785   0.710
   27       -0.014  -0.041   0.759   0.704
   28       -0.022  -0.046   0.745   0.677
   29       -0.018  -0.038   0.735   0.679
   30       -0.018  -0.037   0.726   0.671
   31       -0.022  -0.046   0.745   0.677
   32       -0.022  -0.046   0.745   0.677
--------------------------------------------------
tot         -0.371  -1.141  55.463  53.951
 
    CHARGE:  cpu time    0.5279: real time    0.5355
    FORLOC:  cpu time    0.0090: real time    0.0095
    FORNL :  cpu time    4.5303: real time    4.6733
    STRESS:  cpu time   13.6639: real time   14.1232
    FORCOR:  cpu time    0.0830: real time    0.0844
    FORHAR:  cpu time    0.0160: real time    0.0172
    MIXING:  cpu time    0.0020: real time    0.0020
    OFIELD:  cpu time    0.0000: real time    0.0001

  FORCE on cell =-STRESS in cart. coord.  units (eV):
  Direction    XX          YY          ZZ          XY          YZ          ZX
  --------------------------------------------------------------------------------------
  Alpha Z  1737.85357  1737.85357  1737.85357
  Ewald   -7990.25244 -8110.81911 -7851.61358    -0.00044     0.00185     0.00193
  Hartree  1838.11081  1722.99758  1970.35728    -0.00107     0.00119     0.00089
  E(xc)   -1519.30172 -1519.60222 -1519.23012     0.00000     0.00000     0.00001
  Local     619.63742   850.48774   350.88350     0.00167    -0.00288    -0.00265
  n-local  -524.69782  -525.40210  -525.63149    -0.00002    -0.00003     0.00010
  augment  3439.41712  3443.27021  3438.40521    -0.00012    -0.00009    -0.00011
  Kinetic  2401.04329  2405.73773  2398.17940    -0.00002     0.00005    -0.00014
  Fock        0.00000     0.00000     0.00000     0.00000     0.00000     0.00000
  -------------------------------------------------------------------------------------
  Total       1.81022     4.52339    -0.79624     0.00001     0.00009     0.00002
  in kB       7.96127    19.89370    -3.50185     0.00003     0.00041     0.00011
  external pressure =        8.12 kB  Pullay stress =        0.00 kB


 VOLUME and BASIS-vectors are now :
 -----------------------------------------------------------------------------
  energy-cutoff  :      520.00
  volume of cell :      364.30
      direct lattice vectors                 reciprocal lattice vectors
     7.142000000  0.000000000  0.000000000     0.140016802  0.000000000  0.000000000
     0.000000000  7.142000000  0.000000000     0.000000000  0.140016802  0.000000000
     0.000000000  0.000000000  7.142000000     0.000000000  0.000000000  0.140016802

  length of vectors
     7.142000000  7.142000000  7.142000000     0.140016802  0.140016802  0.140016802


 FORCES acting on ions
    electron-ion (+dipol)            ewald-force                    non-local-force                 convergence-correction
 -----------------------------------------------------------------------------------------------
   -.906E-02 -.715E+02 0.793E-02   0.774E-02 0.720E+02 -.617E-02   -.644E-04 -.539E+00 -.532E-04   0.141E-02 0.152E-01 -.175E-02
   0.136E+01 0.742E+02 0.144E-01   -.123E+01 -.746E+02 -.144E-01   -.154E+00 0.441E+00 -.749E-04   0.223E-01 -.336E-01 -.288E-04
   -.114E-02 -.715E+02 -.667E-02   -.270E-03 0.720E+02 0.490E-02   0.110E-04 -.539E+00 -.271E-04   0.135E-02 0.151E-01 0.176E-02
   -.137E+01 0.742E+02 -.128E-01   0.124E+01 -.746E+02 0.128E-01   0.153E+00 0.441E+00 0.530E-04   -.194E-01 -.329E-01 0.183E-04
   -.105E+01 -.757E+02 0.195E-01   0.101E+01 0.760E+02 -.197E-01   0.273E-01 -.317E+00 -.682E-04   0.952E-02 0.338E-01 0.144E-03
   0.789E+02 -.728E+02 -.262E-01   -.794E+02 0.732E+02 0.264E-01   0.518E+00 -.430E+00 0.147E-03   -.598E-01 0.323E-01 -.409E-05
   0.738E+02 0.801E+02 -.135E+01   -.742E+02 -.805E+02 0.132E+01   0.436E+00 0.423E+00 0.252E-01   -.272E-01 -.346E-01 0.928E-02
   0.793E+02 0.712E+02 0.235E-01   -.798E+02 -.716E+02 -.239E-01   0.447E+00 0.377E+00 -.122E-03   -.276E-01 -.725E-03 0.171E-03
   0.133E-01 -.837E+02 0.115E-01   -.121E-01 0.838E+02 -.895E-02   -.210E-03 -.145E+00 -.452E-04   -.137E-02 0.213E-01 -.263E-02
   -.790E+02 -.728E+02 0.157E-01   0.794E+02 0.732E+02 -.159E-01   -.518E+00 -.430E+00 -.537E-04   0.606E-01 0.333E-01 0.478E-04
   0.104E+01 -.757E+02 -.194E-01   -.100E+01 0.760E+02 0.197E-01   -.273E-01 -.317E+00 0.782E-04   -.518E-02 0.332E-01 -.164E-03
   0.738E+02 0.801E+02 0.135E+01   -.742E+02 -.805E+02 -.132E+01   0.436E+00 0.423E+00 -.252E-01   -.271E-01 -.344E-01 -.924E-02
   -.367E-02 -.837E+02 -.156E-01   0.524E-02 0.838E+02 0.131E-01   0.114E-03 -.145E+00 0.110E-03   -.144E-02 0.210E-01 0.258E-02
   -.738E+02 0.801E+02 0.136E+01   0.742E+02 -.805E+02 -.132E+01   -.436E+00 0.423E+00 -.251E-01   0.272E-01 -.355E-01 -.140E-01
   -.738E+02 0.801E+02 -.136E+01   0.742E+02 -.805E+02 0.133E+01   -.436E+00 0.423E+00 0.251E-01   0.271E-01 -.352E-01 0.140E-01
   -.793E+02 0.712E+02 -.164E-01   0.798E+02 -.716E+02 0.167E-01   -.447E+00 0.377E+00 0.602E-04   0.265E-01 -.993E-03 -.182E-03
   0.955E+02 -.969E+02 0.259E-01   -.959E+02 0.972E+02 -.261E-01   0.455E+00 -.291E+00 0.588E-04   -.577E-01 0.535E-02 0.322E-04
   -.132E-01 0.860E+02 0.742E-02   0.105E-01 -.863E+02 -.438E-02   0.168E-04 0.330E+00 0.858E-04   0.278E-02 -.313E-01 -.310E-02
   0.958E+00 0.925E+02 0.196E-01   -.847E+00 -.930E+02 -.197E-01   -.985E-01 0.515E+00 -.181E-04   -.160E-01 -.499E-01 -.116E-04
   -.497E-02 0.860E+02 -.103E-01   0.215E-02 -.863E+02 0.735E-02   -.284E-04 0.330E+00 -.652E-04   0.282E-02 -.311E-01 0.310E-02
   0.869E+02 0.816E+02 -.199E-01   -.870E+02 -.816E+02 0.202E-01   0.116E+00 0.112E+00 -.471E-04   -.447E-01 -.479E-01 -.211E-03
   0.908E+02 -.829E+02 0.440E+01   -.911E+02 0.832E+02 -.452E+01   0.365E+00 -.353E+00 0.955E-01   -.744E-01 0.467E-01 0.258E-01
   -.949E+00 0.925E+02 -.188E-01   0.842E+00 -.930E+02 0.189E-01   0.986E-01 0.515E+00 0.496E-05   0.123E-01 -.491E-01 0.145E-04
   0.856E-02 0.803E+02 0.930E-02   -.579E-02 -.804E+02 -.518E-02   0.814E-04 0.164E+00 -.170E-05   -.286E-02 -.259E-01 -.412E-02
   -.482E+01 -.797E+02 0.247E-01   0.493E+01 0.800E+02 -.252E-01   -.114E+00 -.298E+00 -.283E-04   0.824E-02 0.508E-01 0.346E-03
   -.955E+02 -.969E+02 -.134E-01   0.959E+02 0.972E+02 0.135E-01   -.455E+00 -.291E+00 0.122E-04   0.567E-01 0.571E-02 -.370E-04
   -.869E+02 0.816E+02 0.174E-01   0.870E+02 -.816E+02 -.177E-01   -.116E+00 0.112E+00 0.485E-04   0.458E-01 -.494E-01 0.154E-03
   0.908E+02 -.829E+02 -.440E+01   -.911E+02 0.832E+02 0.452E+01   0.365E+00 -.353E+00 -.955E-01   -.742E-01 0.465E-01 -.258E-01
   0.469E-02 0.803E+02 -.109E-01   -.184E-02 -.804E+02 0.676E-02   0.471E-04 0.164E+00 -.210E-04   -.289E-02 -.256E-01 0.416E-02
   0.484E+01 -.797E+02 -.252E-01   -.494E+01 0.800E+02 0.258E-01   0.114E+00 -.298E+00 0.570E-04   -.138E-01 0.499E-01 -.354E-03
   -.908E+02 -.829E+02 -.438E+01   0.911E+02 0.832E+02 0.451E+01   -.365E+00 -.353E+00 -.954E-01   0.744E-01 0.478E-01 -.328E-01
   -.908E+02 -.829E+02 0.438E+01   0.911E+02 0.832E+02 -.451E+01   -.365E+00 -.353E+00 0.953E-01   0.742E-01 0.475E-01 0.328E-01
 -----------------------------------------------------------------------------------------------
   0.251E-02 -.103E+00 -.456E-04   -.284E-12 -.128E-12 0.462E-13   -.926E-04 0.122E+00 0.490E-04   -.259E-02 -.126E-01 0.659E-06
 
 
 POSITION                                       TOTAL-FORCE (eV/Angst)
 -----------------------------------------------------------------------------------
      7.14198     -0.01277      3.57101         0.000035     -0.005763     -0.000054
      0.02481      1.80327      5.35650        -0.001532     -0.002492     -0.000112
      0.00001     -0.01276     -0.00000        -0.000044     -0.005856     -0.000028
      7.11718      1.80327      1.78551         0.001473     -0.002536      0.000072
     -0.01603      5.31198      5.35652        -0.007021     -0.003654     -0.000201
      1.81385     -0.00580      1.78548        -0.008747     -0.005414      0.000378
      1.81452      1.82398      3.57525         0.007175      0.002062      0.002851
      1.83817      3.61667      5.35653        -0.007581     -0.000737     -0.000329
      3.57106     -0.04670      3.57103        -0.000345     -0.005397     -0.000161
      5.32817     -0.00582      5.35653         0.008780     -0.005302     -0.000188
      0.01603      5.31200      1.78548         0.006999     -0.003725      0.000203
      1.81448      1.82398      7.13776         0.007316      0.002201     -0.002912
      3.57097     -0.04669     -0.00004         0.000243     -0.005363      0.000237
      5.32748      1.82399      3.56676        -0.007194      0.002077     -0.002730
      5.32751      1.82397      0.00423        -0.007355      0.002115      0.002818
      5.30383      3.61665      1.78547         0.007576     -0.000558      0.000216
      1.81505     -0.03767      5.35650        -0.001332      0.000501     -0.000166
     -0.00001      3.57966      3.57100         0.000106      0.017371      0.000023
      3.56235      1.79989      5.35652        -0.003335      0.000491     -0.000142
     -0.00000      3.57968     -0.00000        -0.000017      0.017216      0.000049
      1.79658      3.56460      1.78549        -0.004154     -0.000807      0.000098
      1.79261      5.34784      3.58054        -0.002222     -0.010861     -0.006922
      3.57965      1.79988      1.78548         0.003395      0.000506      0.000145
      3.57100      3.58559      3.57100        -0.000009      0.005738      0.000005
      3.59717      5.34963      5.35652         0.001314      0.017768     -0.000224
      5.32694     -0.03767      1.78548         0.001327      0.000484      0.000029
      5.34542      3.56462      5.35652         0.004142     -0.000909     -0.000127
      1.79260      5.34783     -0.00955        -0.002232     -0.010884      0.006940
      3.57100      3.58558      7.14200         0.000015      0.005719      0.000024
      3.54483      5.34964      1.78547        -0.001233      0.017766      0.000239
      5.34940      5.34783      3.56145         0.002252     -0.010881      0.006921
      5.34940      5.34784      0.00955         0.002205     -0.010877     -0.006950
 -----------------------------------------------------------------------------------
    total drift:                               -0.000169      0.006725      0.000004


--------------------------------------------------------------------------------------------------------



  FREE ENERGIE OF THE ION-ELECTRON SYSTEM (eV)
  ---------------------------------------------------
  free  energy   TOTEN  =      -219.47728373 eV

  energy  without entropy=     -219.45487906  energy(sigma->0) =     -219.46981551
 
 d Force = 0.1200816E-03[-0.188E-04, 0.259E-03]  d Energy = 0.1016608E-03 0.184E-04
 d Force = 0.5932724E+00[ 0.587E+00, 0.600E+00]  d Ewald  = 0.5932727E+00-0.287E-06


--------------------------------------------------------------------------------------------------------


    POTLOK:  cpu time    0.0960: real time    0.0976


--------------------------------------------------------------------------------------------------------




--------------------------------------------------------------------------------------------------------


  
 reached required accuracy - stopping structural energy minimisation
     LOOP+:  cpu time   94.7736: real time   97.2385
    4ORBIT:  cpu time    0.0000: real time    0.0000
 


 total charge     
 
# of ion       s       p       d       tot
------------------------------------------
    1        0.473   0.499   6.174   7.146
    2        0.472   0.501   6.188   7.161
    3        0.473   0.499   6.174   7.146
    4        0.472   0.501   6.188   7.161
    5        0.470   0.497   6.172   7.139
    6        0.480   0.508   6.197   7.186
    7        0.473   0.502   6.175   7.150
    8        0.483   0.509   6.177   7.170
    9        0.472   0.501   6.181   7.154
   10        0.480   0.508   6.197   7.186
   11        0.470   0.497   6.172   7.139
   12        0.473   0.502   6.175   7.150
   13        0.472   0.501   6.181   7.154
   14        0.473   0.502   6.175   7.150
   15        0.473   0.502   6.175   7.150
   16        0.483   0.509   6.177   7.170
   17        0.503   0.509   8.302   9.314
   18        0.513   0.520   8.308   9.341
   19        0.513   0.522   8.307   9.342
   20        0.513   0.520   8.308   9.341
   21        0.499   0.501   8.309   9.310
   22        0.510   0.513   8.313   9.336
   23        0.513   0.522   8.306   9.342
   24        0.509   0.509   8.318   9.337
   25        0.510   0.509   8.319   9.338
   26        0.503   0.509   8.302   9.314
   27        0.499   0.501   8.310   9.310
   28        0.510   0.513   8.313   9.336
   29        0.509   0.509   8.318   9.337
   30        0.510   0.509   8.319   9.338
   31        0.510   0.513   8.313   9.336
   32        0.510   0.513   8.313   9.336
--------------------------------------------------
tot         15.728  16.230 231.856 263.814
 


 magnetization (x)
 
# of ion       s       p       d       tot
------------------------------------------
    1       -0.006  -0.031   2.720   2.683
    2       -0.006  -0.034   2.683   2.643
    3       -0.006  -0.031   2.720   2.683
    4       -0.006  -0.034   2.683   2.643
    5        0.002  -0.019   2.737   2.720
    6       -0.009  -0.031   2.648   2.608
    7       -0.002  -0.027   2.724   2.695
    8       -0.002  -0.016   2.731   2.713
    9        0.003  -0.018   2.717   2.702
   10       -0.009  -0.031   2.648   2.608
   11        0.002  -0.019   2.737   2.720
   12       -0.002  -0.027   2.724   2.695
   13        0.003  -0.018   2.717   2.702
   14       -0.002  -0.027   2.724   2.695
   15       -0.002  -0.027   2.724   2.695
   16       -0.002  -0.016   2.731   2.713
   17       -0.021  -0.053   0.785   0.710
   18       -0.025  -0.053   0.773   0.695
   19       -0.025  -0.053   0.781   0.703
   20       -0.025  -0.053   0.773   0.695
   21       -0.014  -0.041   0.759   0.704
   22       -0.022  -0.046   0.745   0.677
   23       -0.025  -0.053   0.781   0.703
   24       -0.018  -0.038   0.735   0.679
   25       -0.018  -0.037   0.726   0.671
   26       -0.021  -0.053   0.785   0.710
   27       -0.014  -0.041   0.759   0.704
   28       -0.022  -0.046   0.745   0.677
   29       -0.018  -0.038   0.735   0.679
   30       -0.018  -0.037   0.726   0.671
   31       -0.022  -0.046   0.745   0.677
   32       -0.022  -0.046   0.745   0.677
--------------------------------------------------
tot         -0.371  -1.141  55.463  53.951
 

 total amount of memory used by VASP MPI-rank0    92902. kBytes
=======================================================================

   base      :      30000. kBytes
   nonlr-proj:       7756. kBytes
   fftplans  :       2563. kBytes
   grid      :       6379. kBytes
   one-center:        124. kBytes
   wavefun   :      46080. kBytes
 
  
  
 General timing and accounting informations for this job:
 ========================================================
  
                  Total CPU time used (sec):     1949.069
                            User time (sec):     1931.106
                          System time (sec):       17.962
                         Elapsed time (sec):     1977.950
  
                   Maximum memory used (kb):      135048.
                   Average memory used (kb):           0.
  
                          Minor page faults:        17928
                          Major page faults:            0
                 Voluntary context switches:         7513
