SQS-NiFe                                
           1
     7.142000    0.000000    0.000000
     0.000000    7.142000    0.000000
     0.000000    0.000000    7.142000
   Fe   Ni
  16  16
Direct configuration=     1
   0.99997994  0.00714719  0.49999208
   0.00152133  0.24329150  0.74999901
   0.00001872  0.00711267  0.00002652
   0.99848141  0.24328323  0.25001141
   0.00009515  0.75533164  0.75001321
   0.24455041  0.00730451  0.24997142
   0.24503546  0.24273735  0.50145416
   0.24241976  0.49428580  0.74999764
   0.50001581  0.00832176  0.50001185
   0.75545374  0.00729827  0.74996970
   0.99991637  0.75535610  0.24999072
   0.24501958  0.24273675  0.99853973
   0.49998070  0.00831648  0.00001574
   0.75496891  0.24277300  0.49851574
   0.75497895  0.24273299  0.00147244
   0.75758438  0.49425257  0.25002571
   0.24650589  0.00266402  0.74999927
   0.00000413  0.49646510  0.49999914
   0.49954770  0.24721344  0.75000187
   0.99999800  0.49647793  0.99999502
   0.24571190  0.49620267  0.25000886
   0.24611012  0.75274775  0.50007838
   0.50044344  0.24721779  0.24999908
   0.50000657  0.49657546  0.49999304
   0.49953046  0.75422576  0.75000455
   0.75348036  0.00265192  0.25000123
   0.75428313  0.49620943  0.74999462
   0.24612076  0.75275014  0.99992434
   0.49999027  0.49657685  0.99999714
   0.50047206  0.75423425  0.24999677
   0.75389245  0.75274878  0.49992144
   0.75388212  0.75275687  0.00007818
Direct configuration=     2
   0.99998898  0.00027716  0.49998837
   0.00128427  0.24916260  0.74998582
   0.00000749  0.00024728  0.00001713
   0.99871557  0.24915748  0.25002037
  -0.00052673  0.75214845  0.74999975
   0.24939698  0.00157112  0.25000166
   0.24893702  0.24973501  0.50080283
   0.24761862  0.49752194  0.74999135
   0.50000878  0.00107651  0.50000459
   0.75060624  0.00157932  0.74997751
   0.00053613  0.75216299  0.25000489
   0.24893420  0.24974602  0.99918776
   0.49998871  0.00107233  0.00000564
   0.75106377  0.24975991  0.49917876
   0.75106551  0.24973330  0.00081683
   0.75239201  0.49750787  0.25001903
   0.25008090 -0.00157270  0.74999228
   0.00000616  0.49840301  0.49999873
   0.49924658  0.25045710  0.75000060
   0.99999801  0.49841206  0.00000105
   0.24774624  0.49726921  0.25000805
   0.24842277  0.75171146  0.49997993
   0.50074850  0.25045883  0.25000112
   0.50000270  0.49774241  0.49999628
   0.50035958  0.75304640  0.75000167
   0.74990778 -0.00157911  0.25000431
   0.75224632  0.49727001  0.74999559
   0.24843727  0.75170630  0.00002021
   0.49999413  0.49774206  0.99999859
   0.49964008  0.75305143  0.25000090
   0.75157870  0.75170651  0.50001356
   0.75156670  0.75171576 -0.00001513
Direct configuration=     3
   0.99999611 -0.00514158  0.49998544
   0.00109729  0.25379341  0.74997541
  -0.00000137 -0.00516780  0.00000973
   0.99890026  0.25379079  0.25002745
  -0.00101723  0.74963772  0.74998914
   0.25321971 -0.00295109  0.25002550
   0.25201437  0.25525441  0.50028908
   0.25171921  0.50007444  0.74998639
   0.50000324 -0.00463818  0.49999886
   0.74678278 -0.00293150  0.74998367
   0.00102497  0.74964442  0.25001607
   0.25202186  0.25527458  0.99969890
   0.49999503 -0.00464148 -0.00000233
   0.74798360  0.25527081  0.49970172
   0.74797880  0.25525479  0.00029972
   0.74829653  0.50007547  0.25001376
   0.25290069 -0.00491440  0.74998676
   0.00000776  0.49993154  0.49999840
   0.49900908  0.25301553  0.74999960
   0.99999802  0.49993760  0.00000580
   0.24935082  0.49811043  0.25000741
   0.25024686  0.75089408  0.49990227
   0.50098911  0.25301519  0.25000273
   0.49999965  0.49866285  0.49999883
   0.50101355  0.75211619  0.74999940
   0.74708992 -0.00491634  0.25000674
   0.75063980  0.49810654  0.74999636
   0.25026441  0.75088297  0.00009584
   0.49999718  0.49866111  0.99999973
   0.49898385  0.75211849  0.25000416
   0.74975373  0.75088442  0.50008622
   0.74974041  0.75089457 -0.00008873
Direct configuration=     4
   0.99999401 -0.00337683  0.49999653
   0.00161964  0.25226566  0.74998781
  -0.00000077 -0.00338768  0.00000126
   0.99837741  0.25226320  0.25001208
  -0.00109806  0.74587688  0.74999124
   0.25467234 -0.00215140  0.25001399
   0.25326220  0.25526124  0.50010398
   0.25493576  0.50419081  0.74999002
   0.50000549 -0.00582855  0.50000455
   0.74533200 -0.00214215  0.74999164
   0.00109673  0.74587619  0.25001041
   0.25325567  0.25527106  0.99989130
   0.49999711 -0.00582872 -0.00000726
   0.74673643  0.25527028  0.49990075
   0.74674322  0.25526096  0.00010146
   0.74507429  0.50419468  0.25000390
   0.25375946 -0.00473069  0.74999216
   0.00000493  0.50227522  0.50000339
   0.49913960  0.25265579  0.74999847
   0.99999672  0.50227351  0.00000175
   0.25084919  0.49976966  0.25000378
   0.25138657  0.74895874  0.50057259
   0.50086075  0.25265626  0.25000144
   0.49999940  0.50094801  0.50000136
   0.50122141  0.74966450  0.74999793
   0.74623126 -0.00473140  0.25000380
   0.74914611  0.49976842  0.74999987
   0.25139488  0.74895324 -0.00057235
   0.50000233  0.50094523  0.99999920
   0.49878164  0.74966336  0.25000355
   0.74861458  0.74895316  0.49942805
   0.74860767  0.74896138  0.00057133
Direct configuration=     5
   0.99999333 -0.00280500  0.50000013
   0.00178890  0.25177062  0.74999183
  -0.00000058 -0.00281087 -0.00000148
   0.99820799  0.25176821  0.25000710
  -0.00112426  0.74465825  0.74999193
   0.25514303 -0.00189228  0.25001025
   0.25366654  0.25526346  0.50004400
   0.25597803  0.50552465  0.74999120
   0.50000622 -0.00621427  0.50000639
   0.74486190 -0.00188637  0.74999422
   0.00111999  0.74465517  0.25000858
   0.25365547  0.25526991  0.99995364
   0.49999778 -0.00621342 -0.00000885
   0.74633231  0.25527011  0.49996524
   0.74634286  0.25526296  0.00003722
   0.74403018  0.50552943  0.25000070
   0.25403773 -0.00467116  0.74999391
   0.00000402  0.50303465  0.50000501
   0.49918190  0.25253922  0.74999810
   0.99999630  0.50303041  0.00000044
   0.25133471  0.50030731  0.25000260
   0.25175587  0.74833163  0.50078980
   0.50081915  0.25253995  0.25000102
   0.49999932  0.50168847  0.50000219
   0.50128877  0.74887007  0.74999746
   0.74595303 -0.00467148  0.25000285
   0.74866211  0.50030692  0.75000101
   0.25176119  0.74832794 -0.00078886
   0.50000400  0.50168536  0.99999903
   0.49871611  0.74886781  0.25000335
   0.74824546  0.74832737  0.49921479
   0.74824063  0.74833496  0.00078520
Direct configuration=     6
   0.99999335 -0.00282086  0.50000003
   0.00178420  0.25178435  0.74999172
  -0.00000059 -0.00282687 -0.00000141
   0.99821269  0.25178194  0.25000724
  -0.00112353  0.74469205  0.74999191
   0.25512998 -0.00189946  0.25001036
   0.25365532  0.25526340  0.50004567
   0.25594912  0.50548765  0.74999117
   0.50000620 -0.00620357  0.50000634
   0.74487494 -0.00189347  0.74999415
   0.00111934  0.74468903  0.25000863
   0.25364438  0.25526995  0.99995191
   0.49999776 -0.00620275 -0.00000881
   0.74634352  0.25527011  0.49996345
   0.74635396  0.25526291  0.00003900
   0.74405914  0.50549241  0.25000079
   0.25403001 -0.00467281  0.74999386
   0.00000404  0.50301358  0.50000496
   0.49918072  0.25254246  0.74999811
   0.99999631  0.50300942  0.00000048
   0.25132125  0.50029239  0.25000263
   0.25174563  0.74834902  0.50078377
   0.50082031  0.25254317  0.25000103
   0.49999933  0.50166794  0.50000216
   0.50128690  0.74889211  0.74999747
   0.74596075 -0.00467314  0.25000287
   0.74867553  0.50029198  0.75000098
   0.25175103  0.74834529 -0.00078285
   0.50000395  0.50166483  0.99999903
   0.49871793  0.74888988  0.25000336
   0.74825570  0.74834473  0.49922070
   0.74825081  0.74835234  0.00077927
Direct configuration=     7
   0.99999413 -0.00247695  0.50000029
   0.00242532  0.25192222  0.74999452
   0.00000045 -0.00248183 -0.00000070
   0.99757185  0.25191955  0.25000560
  -0.00148644  0.74445507  0.74999680
   0.25487198 -0.00176438  0.25000461
   0.25372839  0.25528308  0.50036538
   0.25642655  0.50560623  0.74999652
   0.50000625 -0.00630262  0.50000563
   0.74513209 -0.00176195  0.74999767
   0.00148414  0.74445487  0.25000380
   0.25371853  0.25528696  0.99963306
   0.49999782 -0.00629950 -0.00000643
   0.74627109  0.25528931  0.49964025
   0.74627976  0.25528174  0.00036042
   0.74357801  0.50560702  0.24999973
   0.25403392 -0.00471059  0.74999633
   0.00000198  0.50249281  0.50000381
   0.49891551  0.25245651  0.75000028
   0.99999793  0.50249276 -0.00000098
   0.25145679  0.50014870  0.25000133
   0.25160978  0.74850985  0.50086653
   0.50108551  0.25245715  0.24999919
   0.50000020  0.50178799  0.50000057
   0.50197101  0.74879917  0.74999877
   0.74595866 -0.00471051  0.25000114
   0.74854155  0.50014976  0.75000175
   0.25161118  0.74850649 -0.00086629
   0.50000272  0.50178447  0.99999935
   0.49803245  0.74879774  0.25000139
   0.74839122  0.74850627  0.49913692
   0.74838966  0.74851262  0.00086279
Direct configuration=     8
   0.99999519 -0.00200786  0.50000064
   0.00329982  0.25211027  0.74999835
   0.00000186 -0.00201120  0.00000025
   0.99669775  0.25210725  0.25000338
  -0.00198144  0.74413183  0.75000347
   0.25452008 -0.00158012  0.24999676
   0.25382805  0.25530993  0.50080147
   0.25707778  0.50576797  0.75000382
   0.50000632 -0.00643773  0.50000466
   0.74548285 -0.00158257  0.75000247
   0.00198173  0.74413547  0.24999721
   0.25381968  0.25531017  0.99919813
   0.49999790 -0.00643147 -0.00000319
   0.74617229  0.25531551  0.49919939
   0.74617855  0.25530742  0.00079884
   0.74292174  0.50576335  0.24999829
   0.25403925 -0.00476213  0.74999970
  -0.00000083  0.50178248  0.50000224
   0.49855375  0.25233929  0.75000322
   0.00000013  0.50178802 -0.00000296
   0.25164168  0.49995270  0.24999955
   0.25142447  0.74872922  0.50097941
   0.50144724  0.25233981  0.24999666
   0.50000140  0.50195174  0.49999839
   0.50290414  0.74867241  0.75000053
   0.74595580 -0.00476149  0.24999877
   0.74835879  0.49995578  0.75000280
   0.25142041  0.74872637 -0.00098009
   0.50000104  0.50194766  0.99999979
   0.49709745  0.74867206  0.24999870
   0.74857608  0.74872662  0.49902264
   0.74857904  0.74873125  0.00097671
Direct configuration=     9
   0.99999709 -0.00185174  0.50000133
   0.00342300  0.25237901  0.74999956
   0.00000126 -0.00185130 -0.00000012
   0.99657472  0.25237766  0.25000170
  -0.00216825  0.74387260  0.75000302
   0.25412915 -0.00103474  0.24999659
   0.25399528  0.25536504  0.50065477
   0.25728846  0.50621293  0.75000404
   0.50000730 -0.00650905  0.50000438
   0.74587384 -0.00103770  0.75000412
   0.00216836  0.74387541  0.24999697
   0.25398895  0.25536487  0.99934607
   0.49999680 -0.00650627 -0.00000473
   0.74600537  0.25536739  0.49934663
   0.74601018  0.25536368  0.00065239
   0.74271139  0.50620981  0.24999690
   0.25410871 -0.00512553  0.75000037
  -0.00000135  0.50137793  0.50000068
   0.49872095  0.25210844  0.75000319
  -0.00000008  0.50138082 -0.00000133
   0.25157728  0.49934981  0.24999926
   0.25111950  0.74877069  0.50123263
   0.50127955  0.25210766  0.24999674
   0.50000062  0.50201663  0.49999941
   0.50344359  0.74893224  0.75000242
   0.74588872 -0.00512548  0.24999797
   0.74842251  0.49935266  0.75000231
   0.25111791  0.74876909 -0.00123333
   0.50000035  0.50201447  0.99999982
   0.49655622  0.74893343  0.24999664
   0.74888090  0.74876862  0.49876712
   0.74888173  0.74877090  0.00123250
Direct configuration=    10
   0.99999786 -0.00178804  0.50000161
   0.00347326  0.25248865  0.75000005
   0.00000101 -0.00178606 -0.00000028
   0.99652452  0.25248798  0.25000101
  -0.00224446  0.74376684  0.75000284
   0.25396965 -0.00081223  0.24999652
   0.25406350  0.25538753  0.50059492
   0.25737441  0.50639448  0.75000412
   0.50000770 -0.00653815  0.50000426
   0.74603336 -0.00081539  0.75000479
   0.00224450  0.74376930  0.24999687
   0.25405802  0.25538719  0.99940643
   0.49999635 -0.00653678 -0.00000535
   0.74593727  0.25538856  0.49940670
   0.74594149  0.25538663  0.00059264
   0.74262557  0.50639197  0.24999633
   0.25413704 -0.00527379  0.75000064
  -0.00000157  0.50121287  0.50000004
   0.49878917  0.25201426  0.75000318
  -0.00000017  0.50121468 -0.00000067
   0.25155100  0.49910383  0.24999914
   0.25099506  0.74878762  0.50133594
   0.50121113  0.25201295  0.24999678
   0.50000030  0.50204310  0.49999983
   0.50366369  0.74903825  0.75000319
   0.74586135 -0.00527398  0.24999765
   0.74844851  0.49910659  0.75000211
   0.25099449  0.74878651 -0.00133666
   0.50000006  0.50204173  0.99999984
   0.49633540  0.74904007  0.24999581
   0.74900527  0.74878575  0.49866286
   0.74900523  0.74878708  0.00133687
