  64  64   1   0
  0.2933977E+02  0.1010031E-08  0.1010031E-08  0.2125380E-08  0.5000000E-15
  1.000000000000000E-004
  CAR 
 SQS-NiFe                                
      9.39595807    -10.33896950  301      0.01360657      1.00000000
    -10.339  0.0000E+00  0.0000E+00  0.0000E+00  0.0000E+00
    -10.273  0.0000E+00  0.0000E+00  0.0000E+00  0.0000E+00
    -10.207  0.0000E+00  0.0000E+00  0.0000E+00  0.0000E+00
    -10.142  0.0000E+00  0.0000E+00  0.0000E+00  0.0000E+00
    -10.076  0.0000E+00  0.0000E+00  0.0000E+00  0.0000E+00
    -10.010  0.0000E+00  0.0000E+00  0.0000E+00  0.0000E+00
     -9.944 -0.4051E-29  0.0000E+00 -0.2665E-30  0.0000E+00
     -9.878 -0.6807E-27 -0.2002E-30 -0.4505E-28 -0.1317E-31
     -9.813 -0.9237E-25 -0.3809E-28 -0.6121E-26 -0.2519E-29
     -9.747 -0.1007E-22 -0.5850E-26 -0.6687E-24 -0.3874E-27
     -9.681 -0.8822E-21 -0.7222E-24 -0.5870E-22 -0.4790E-25
     -9.615 -0.6205E-19 -0.7163E-22 -0.4141E-20 -0.4760E-23
     -9.550 -0.3504E-17 -0.5707E-20 -0.2346E-18 -0.3802E-21
     -9.484 -0.1540E-15 -0.3650E-18 -0.1037E-16 -0.2439E-19
     -9.418 -0.5570E-14 -0.1779E-16 -0.3768E-15 -0.1195E-17
     -9.352 -0.1614E-12 -0.7480E-15 -0.1100E-13 -0.5040E-16
     -9.286 -0.3741E-11 -0.2456E-13 -0.2571E-12 -0.1666E-14
     -9.221 -0.6923E-10 -0.6463E-12 -0.4811E-11 -0.4418E-13
     -9.155 -0.1021E-08 -0.1359E-10 -0.7200E-10 -0.9382E-12
     -9.089 -0.1198E-07 -0.2281E-09 -0.8602E-09 -0.1594E-10
     -9.023 -0.1114E-06 -0.3048E-08 -0.8188E-08 -0.2165E-09
     -8.958 -0.8169E-06 -0.3236E-07 -0.6193E-07 -0.2345E-08
     -8.892 -0.4693E-05 -0.2717E-06 -0.3706E-06 -0.2022E-07
     -8.826 -0.2090E-04 -0.1795E-05 -0.1746E-05 -0.1383E-06
     -8.760 -0.7095E-04 -0.9251E-05 -0.6413E-05 -0.7468E-06
     -8.694 -0.1781E-03 -0.3675E-04 -0.1813E-04 -0.3164E-05
     -8.629 -0.3089E-03 -0.1101E-03 -0.3845E-04 -0.1041E-04
     -8.563 -0.2954E-03 -0.2391E-03 -0.5788E-04 -0.2614E-04
     -8.497  0.1138E-03 -0.3397E-03 -0.5039E-04 -0.4849E-04
     -8.431  0.1063E-02 -0.1902E-03  0.1953E-04 -0.6099E-04
     -8.365  0.2762E-02  0.4369E-03  0.2012E-03 -0.3226E-04
     -8.300  0.6192E-02  0.1669E-02  0.6085E-03  0.7757E-04
     -8.234  0.1275E-01  0.4003E-02  0.1447E-02  0.3409E-03
     -8.168  0.2149E-01  0.8785E-02  0.2861E-02  0.9188E-03
     -8.102  0.2745E-01  0.1672E-01  0.4666E-02  0.2019E-02
     -8.037  0.2544E-01  0.2493E-01  0.6340E-02  0.3659E-02
     -7.971  0.1629E-01  0.2761E-01  0.7411E-02  0.5475E-02
     -7.905  0.6910E-02  0.2193E-01  0.7866E-02  0.6917E-02
     -7.839  0.3901E-02  0.1219E-01  0.8123E-02  0.7719E-02
     -7.773  0.8356E-02  0.5860E-02  0.8672E-02  0.8105E-02
     -7.708  0.1650E-01  0.6450E-02  0.9758E-02  0.8529E-02
     -7.642  0.2410E-01  0.1153E-01  0.1134E-01  0.9288E-02
     -7.576  0.2973E-01  0.1700E-01  0.1330E-01  0.1041E-01
     -7.510  0.3363E-01  0.2184E-01  0.1551E-01  0.1184E-01
     -7.445  0.3434E-01  0.2761E-01  0.1777E-01  0.1366E-01
     -7.379  0.2918E-01  0.3364E-01  0.1969E-01  0.1587E-01
     -7.313  0.1861E-01  0.3517E-01  0.2091E-01  0.1819E-01
     -7.247  0.7371E-02  0.2854E-01  0.2140E-01  0.2006E-01
     -7.181  0.1149E-03  0.1632E-01  0.2141E-01  0.2114E-01
     -7.116 -0.1553E-02  0.5130E-02  0.2130E-01  0.2147E-01
     -7.050  0.3598E-02 -0.7843E-03  0.2154E-01  0.2142E-01
     -6.984  0.1878E-01 -0.1058E-02  0.2278E-01  0.2135E-01
     -6.918  0.4413E-01  0.4905E-02  0.2568E-01  0.2168E-01
     -6.852  0.6940E-01  0.1989E-01  0.3024E-01  0.2298E-01
     -6.787  0.7818E-01  0.4362E-01  0.3539E-01  0.2585E-01
     -6.721  0.6422E-01  0.6669E-01  0.3961E-01  0.3024E-01
     -6.655  0.4011E-01  0.7510E-01  0.4225E-01  0.3518E-01
     -6.589  0.2548E-01  0.6370E-01  0.4393E-01  0.3937E-01
     -6.524  0.2855E-01  0.4258E-01  0.4580E-01  0.4217E-01
     -6.458  0.4178E-01  0.2758E-01  0.4855E-01  0.4399E-01
     -6.392  0.5264E-01  0.2615E-01  0.5202E-01  0.4571E-01
     -6.326  0.5445E-01  0.3432E-01  0.5560E-01  0.4797E-01
     -6.260  0.4721E-01  0.4422E-01  0.5870E-01  0.5087E-01
     -6.195  0.3351E-01  0.5055E-01  0.6091E-01  0.5420E-01
     -6.129  0.1756E-01  0.5033E-01  0.6206E-01  0.5751E-01
     -6.063  0.6454E-02  0.4167E-01  0.6249E-01  0.6025E-01
     -5.997  0.8372E-02  0.2607E-01  0.6304E-01  0.6197E-01
     -5.932  0.2784E-01  0.9950E-02  0.6487E-01  0.6262E-01
     -5.866  0.6140E-01  0.1321E-02  0.6891E-01  0.6271E-01
     -5.800  0.9600E-01  0.5499E-02  0.7522E-01  0.6307E-01
     -5.734  0.1140E+00  0.2408E-01  0.8272E-01  0.6465E-01
     -5.668  0.1060E+00  0.5469E-01  0.8970E-01  0.6825E-01
     -5.603  0.8226E-01  0.8845E-01  0.9511E-01  0.7407E-01
     -5.537  0.6435E-01  0.1100E+00  0.9934E-01  0.8131E-01
     -5.471  0.6369E-01  0.1066E+00  0.1035E+00  0.8832E-01
     -5.405  0.6943E-01  0.8032E-01  0.1081E+00  0.9361E-01
     -5.339  0.6244E-01  0.4823E-01  0.1122E+00  0.9678E-01
     -5.274  0.3977E-01  0.2911E-01  0.1148E+00  0.9869E-01
     -5.208  0.2260E-01  0.3033E-01  0.1163E+00  0.1007E+00
     -5.142  0.3985E-01  0.4574E-01  0.1189E+00  0.1037E+00
     -5.076  0.1026E+00  0.6109E-01  0.1257E+00  0.1077E+00
     -5.011  0.1915E+00  0.6289E-01  0.1383E+00  0.1119E+00
     -4.945  0.2695E+00  0.4797E-01  0.1560E+00  0.1150E+00
     -4.879  0.3096E+00  0.2748E-01  0.1764E+00  0.1168E+00
     -4.813  0.3095E+00  0.1989E-01  0.1967E+00  0.1181E+00
     -4.747  0.2846E+00  0.3845E-01  0.2155E+00  0.1207E+00
     -4.682  0.2545E+00  0.8183E-01  0.2322E+00  0.1260E+00
     -4.616  0.2397E+00  0.1326E+00  0.2480E+00  0.1348E+00
     -4.550  0.2560E+00  0.1665E+00  0.2648E+00  0.1457E+00
     -4.484  0.3018E+00  0.1689E+00  0.2847E+00  0.1568E+00
     -4.418  0.3569E+00  0.1451E+00  0.3081E+00  0.1664E+00
     -4.353  0.4042E+00  0.1118E+00  0.3347E+00  0.1737E+00
     -4.287  0.4473E+00  0.8241E-01  0.3642E+00  0.1791E+00
     -4.221  0.4983E+00  0.6293E-01  0.3969E+00  0.1833E+00
     -4.155  0.5548E+00  0.5813E-01  0.4334E+00  0.1871E+00
     -4.090  0.5980E+00  0.7370E-01  0.4728E+00  0.1920E+00
     -4.024  0.6094E+00  0.1112E+00  0.5129E+00  0.1993E+00
     -3.958  0.5866E+00  0.1643E+00  0.5514E+00  0.2101E+00
     -3.892  0.5487E+00  0.2184E+00  0.5875E+00  0.2244E+00
     -3.826  0.5230E+00  0.2558E+00  0.6219E+00  0.2413E+00
     -3.761  0.5229E+00  0.2658E+00  0.6563E+00  0.2588E+00
     -3.695  0.5395E+00  0.2544E+00  0.6918E+00  0.2755E+00
     -3.629  0.5565E+00  0.2394E+00  0.7284E+00  0.2912E+00
     -3.563  0.5653E+00  0.2366E+00  0.7656E+00  0.3068E+00
     -3.498  0.5662E+00  0.2497E+00  0.8029E+00  0.3232E+00
     -3.432  0.5625E+00  0.2706E+00  0.8399E+00  0.3410E+00
     -3.366  0.5590E+00  0.2868E+00  0.8766E+00  0.3599E+00
     -3.300  0.5604E+00  0.2952E+00  0.9135E+00  0.3793E+00
     -3.234  0.5659E+00  0.3090E+00  0.9507E+00  0.3997E+00
     -3.169  0.5676E+00  0.3449E+00  0.9881E+00  0.4223E+00
     -3.103  0.5596E+00  0.4021E+00  0.1025E+01  0.4488E+00
     -3.037  0.5495E+00  0.4576E+00  0.1061E+01  0.4789E+00
     -2.971  0.5573E+00  0.4834E+00  0.1098E+01  0.5107E+00
     -2.905  0.5994E+00  0.4699E+00  0.1137E+01  0.5416E+00
     -2.840  0.6746E+00  0.4342E+00  0.1181E+01  0.5702E+00
     -2.774  0.7662E+00  0.4072E+00  0.1232E+01  0.5970E+00
     -2.708  0.8567E+00  0.4099E+00  0.1288E+01  0.6239E+00
     -2.642  0.9371E+00  0.4390E+00  0.1350E+01  0.6528E+00
     -2.577  0.1005E+01  0.4729E+00  0.1416E+01  0.6839E+00
     -2.511  0.1057E+01  0.4912E+00  0.1486E+01  0.7162E+00
     -2.445  0.1089E+01  0.4899E+00  0.1557E+01  0.7485E+00
     -2.379  0.1101E+01  0.4794E+00  0.1630E+01  0.7800E+00
     -2.313  0.1099E+01  0.4729E+00  0.1702E+01  0.8111E+00
     -2.248  0.1080E+01  0.4761E+00  0.1773E+01  0.8424E+00
     -2.182  0.1032E+01  0.4868E+00  0.1841E+01  0.8744E+00
     -2.116  0.9471E+00  0.4986E+00  0.1903E+01  0.9072E+00
     -2.050  0.8499E+00  0.5057E+00  0.1959E+01  0.9405E+00
     -1.985  0.7878E+00  0.5091E+00  0.2011E+01  0.9740E+00
     -1.919  0.7860E+00  0.5169E+00  0.2063E+01  0.1008E+01
     -1.853  0.8215E+00  0.5361E+00  0.2117E+01  0.1043E+01
     -1.787  0.8470E+00  0.5680E+00  0.2172E+01  0.1081E+01
     -1.721  0.8383E+00  0.6092E+00  0.2228E+01  0.1121E+01
     -1.656  0.8123E+00  0.6567E+00  0.2281E+01  0.1164E+01
     -1.590  0.8025E+00  0.7073E+00  0.2334E+01  0.1210E+01
     -1.524  0.8250E+00  0.7566E+00  0.2388E+01  0.1260E+01
     -1.458  0.8702E+00  0.8007E+00  0.2445E+01  0.1313E+01
     -1.392  0.9199E+00  0.8378E+00  0.2506E+01  0.1368E+01
     -1.327  0.9607E+00  0.8673E+00  0.2569E+01  0.1425E+01
     -1.261  0.9847E+00  0.8885E+00  0.2634E+01  0.1483E+01
     -1.195  0.9865E+00  0.8994E+00  0.2699E+01  0.1543E+01
     -1.129  0.9699E+00  0.8956E+00  0.2762E+01  0.1602E+01
     -1.064  0.9528E+00  0.8732E+00  0.2825E+01  0.1659E+01
     -0.998  0.9631E+00  0.8334E+00  0.2888E+01  0.1714E+01
     -0.932  0.1019E+01  0.7853E+00  0.2956E+01  0.1766E+01
     -0.866  0.1108E+01  0.7403E+00  0.3028E+01  0.1814E+01
     -0.800  0.1182E+01  0.7062E+00  0.3106E+01  0.1861E+01
     -0.735  0.1179E+01  0.6851E+00  0.3184E+01  0.1906E+01
     -0.669  0.1069E+01  0.6743E+00  0.3254E+01  0.1950E+01
     -0.603  0.8686E+00  0.6678E+00  0.3311E+01  0.1994E+01
     -0.537  0.6300E+00  0.6605E+00  0.3353E+01  0.2037E+01
     -0.472  0.4123E+00  0.6506E+00  0.3380E+01  0.2080E+01
     -0.406  0.2571E+00  0.6393E+00  0.3397E+01  0.2122E+01
     -0.340  0.1752E+00  0.6287E+00  0.3408E+01  0.2164E+01
     -0.274  0.1481E+00  0.6213E+00  0.3418E+01  0.2205E+01
     -0.208  0.1443E+00  0.6191E+00  0.3427E+01  0.2245E+01
     -0.143  0.1393E+00  0.6217E+00  0.3437E+01  0.2286E+01
     -0.077  0.1265E+00  0.6243E+00  0.3445E+01  0.2327E+01
     -0.011  0.1142E+00  0.6211E+00  0.3452E+01  0.2368E+01
      0.055  0.1113E+00  0.6105E+00  0.3460E+01  0.2408E+01
      0.121  0.1164E+00  0.5968E+00  0.3467E+01  0.2448E+01
      0.186  0.1224E+00  0.5854E+00  0.3475E+01  0.2486E+01
      0.252  0.1269E+00  0.5782E+00  0.3484E+01  0.2524E+01
      0.318  0.1296E+00  0.5727E+00  0.3492E+01  0.2562E+01
      0.384  0.1264E+00  0.5658E+00  0.3501E+01  0.2599E+01
      0.449  0.1133E+00  0.5582E+00  0.3508E+01  0.2636E+01
      0.515  0.9368E-01  0.5536E+00  0.3514E+01  0.2672E+01
      0.581  0.7619E-01  0.5534E+00  0.3519E+01  0.2709E+01
      0.647  0.6810E-01  0.5533E+00  0.3524E+01  0.2745E+01
      0.713  0.7258E-01  0.5494E+00  0.3529E+01  0.2781E+01
      0.778  0.8539E-01  0.5456E+00  0.3534E+01  0.2817E+01
      0.844  0.9536E-01  0.5506E+00  0.3540E+01  0.2853E+01
      0.910  0.9495E-01  0.5673E+00  0.3547E+01  0.2890E+01
      0.976  0.8819E-01  0.5888E+00  0.3552E+01  0.2929E+01
      1.042  0.8176E-01  0.6062E+00  0.3558E+01  0.2969E+01
      1.107  0.7385E-01  0.6162E+00  0.3563E+01  0.3010E+01
      1.173  0.6269E-01  0.6198E+00  0.3567E+01  0.3050E+01
      1.239  0.6073E-01  0.6182E+00  0.3571E+01  0.3091E+01
      1.305  0.8463E-01  0.6124E+00  0.3576E+01  0.3131E+01
      1.370  0.1302E+00  0.6046E+00  0.3585E+01  0.3171E+01
      1.436  0.1722E+00  0.5986E+00  0.3596E+01  0.3211E+01
      1.502  0.1928E+00  0.5954E+00  0.3609E+01  0.3250E+01
      1.568  0.1973E+00  0.5918E+00  0.3622E+01  0.3289E+01
      1.634  0.1953E+00  0.5813E+00  0.3635E+01  0.3327E+01
      1.699  0.1832E+00  0.5586E+00  0.3647E+01  0.3364E+01
      1.765  0.1523E+00  0.5215E+00  0.3657E+01  0.3398E+01
      1.831  0.1058E+00  0.4719E+00  0.3664E+01  0.3429E+01
      1.897  0.5831E-01  0.4176E+00  0.3668E+01  0.3456E+01
      1.962  0.2467E-01  0.3676E+00  0.3669E+01  0.3481E+01
      2.028  0.1201E-01  0.3227E+00  0.3670E+01  0.3502E+01
      2.094  0.1716E-01  0.2734E+00  0.3671E+01  0.3520E+01
      2.160  0.3045E-01  0.2123E+00  0.3673E+01  0.3534E+01
      2.226  0.4400E-01  0.1474E+00  0.3676E+01  0.3543E+01
      2.291  0.5813E-01  0.1006E+00  0.3680E+01  0.3550E+01
      2.357  0.7915E-01  0.9062E-01  0.3685E+01  0.3556E+01
      2.423  0.1086E+00  0.1162E+00  0.3692E+01  0.3564E+01
      2.489  0.1338E+00  0.1567E+00  0.3701E+01  0.3574E+01
      2.555  0.1353E+00  0.1886E+00  0.3710E+01  0.3586E+01
      2.620  0.1083E+00  0.2016E+00  0.3717E+01  0.3600E+01
      2.686  0.7451E-01  0.1983E+00  0.3722E+01  0.3613E+01
      2.752  0.6448E-01  0.1854E+00  0.3726E+01  0.3625E+01
      2.818  0.8923E-01  0.1669E+00  0.3732E+01  0.3636E+01
      2.883  0.1322E+00  0.1452E+00  0.3741E+01  0.3645E+01
      2.949  0.1661E+00  0.1247E+00  0.3752E+01  0.3654E+01
      3.015  0.1721E+00  0.1107E+00  0.3763E+01  0.3661E+01
      3.081  0.1471E+00  0.1053E+00  0.3773E+01  0.3668E+01
      3.147  0.1003E+00  0.1075E+00  0.3779E+01  0.3675E+01
      3.212  0.4838E-01  0.1147E+00  0.3782E+01  0.3682E+01
      3.278  0.1036E-01  0.1234E+00  0.3783E+01  0.3691E+01
      3.344  0.7432E-03  0.1280E+00  0.3783E+01  0.3699E+01
      3.410  0.2541E-01  0.1227E+00  0.3785E+01  0.3707E+01
      3.475  0.7914E-01  0.1043E+00  0.3790E+01  0.3714E+01
      3.541  0.1451E+00  0.7700E-01  0.3800E+01  0.3719E+01
      3.607  0.1993E+00  0.5392E-01  0.3813E+01  0.3723E+01
      3.673  0.2209E+00  0.5075E-01  0.3827E+01  0.3726E+01
      3.739  0.2023E+00  0.7434E-01  0.3841E+01  0.3731E+01
      3.804  0.1540E+00  0.1170E+00  0.3851E+01  0.3739E+01
      3.870  0.9858E-01  0.1589E+00  0.3857E+01  0.3749E+01
      3.936  0.5555E-01  0.1771E+00  0.3861E+01  0.3761E+01
      4.002  0.2994E-01  0.1577E+00  0.3863E+01  0.3771E+01
      4.068  0.1545E-01  0.1086E+00  0.3864E+01  0.3778E+01
      4.133  0.6150E-02  0.5912E-01  0.3864E+01  0.3782E+01
      4.199  0.1612E-02  0.4208E-01  0.3864E+01  0.3785E+01
      4.265  0.2952E-02  0.7101E-01  0.3865E+01  0.3789E+01
      4.331  0.8968E-02  0.1316E+00  0.3865E+01  0.3798E+01
      4.396  0.1825E-01  0.1918E+00  0.3866E+01  0.3811E+01
      4.462  0.3327E-01  0.2215E+00  0.3869E+01  0.3825E+01
      4.528  0.5891E-01  0.2096E+00  0.3872E+01  0.3839E+01
      4.594  0.9511E-01  0.1667E+00  0.3879E+01  0.3850E+01
      4.660  0.1329E+00  0.1144E+00  0.3887E+01  0.3858E+01
      4.725  0.1596E+00  0.7195E-01  0.3898E+01  0.3862E+01
      4.791  0.1652E+00  0.4850E-01  0.3909E+01  0.3866E+01
      4.857  0.1457E+00  0.4320E-01  0.3918E+01  0.3868E+01
      4.923  0.1065E+00  0.4910E-01  0.3925E+01  0.3872E+01
      4.988  0.6525E-01  0.5698E-01  0.3930E+01  0.3875E+01
      5.054  0.4326E-01  0.6011E-01  0.3932E+01  0.3879E+01
      5.120  0.5055E-01  0.5990E-01  0.3936E+01  0.3883E+01
      5.186  0.7825E-01  0.6624E-01  0.3941E+01  0.3888E+01
      5.252  0.1071E+00  0.8833E-01  0.3948E+01  0.3893E+01
      5.317  0.1238E+00  0.1237E+00  0.3956E+01  0.3902E+01
      5.383  0.1284E+00  0.1578E+00  0.3965E+01  0.3912E+01
      5.449  0.1240E+00  0.1746E+00  0.3973E+01  0.3923E+01
      5.515  0.1075E+00  0.1670E+00  0.3980E+01  0.3934E+01
      5.581  0.7689E-01  0.1392E+00  0.3985E+01  0.3944E+01
      5.646  0.4155E-01  0.1031E+00  0.3988E+01  0.3950E+01
      5.712  0.1707E-01  0.7317E-01  0.3989E+01  0.3955E+01
      5.778  0.1302E-01  0.5889E-01  0.3990E+01  0.3959E+01
      5.844  0.3119E-01  0.5756E-01  0.3992E+01  0.3963E+01
      5.909  0.6872E-01  0.5732E-01  0.3996E+01  0.3967E+01
      5.975  0.1166E+00  0.5258E-01  0.4004E+01  0.3970E+01
      6.041  0.1604E+00  0.5420E-01  0.4014E+01  0.3974E+01
      6.107  0.1892E+00  0.7785E-01  0.4027E+01  0.3979E+01
      6.173  0.2013E+00  0.1212E+00  0.4040E+01  0.3987E+01
      6.238  0.2003E+00  0.1589E+00  0.4053E+01  0.3997E+01
      6.304  0.1887E+00  0.1660E+00  0.4066E+01  0.4008E+01
      6.370  0.1673E+00  0.1429E+00  0.4077E+01  0.4017E+01
      6.436  0.1396E+00  0.1130E+00  0.4086E+01  0.4025E+01
      6.502  0.1173E+00  0.9691E-01  0.4094E+01  0.4031E+01
      6.567  0.1145E+00  0.9591E-01  0.4101E+01  0.4038E+01
      6.633  0.1334E+00  0.9944E-01  0.4110E+01  0.4044E+01
      6.699  0.1585E+00  0.1009E+00  0.4120E+01  0.4051E+01
      6.765  0.1677E+00  0.1005E+00  0.4131E+01  0.4057E+01
      6.830  0.1480E+00  0.9939E-01  0.4141E+01  0.4064E+01
      6.896  0.1041E+00  0.1005E+00  0.4148E+01  0.4071E+01
      6.962  0.5397E-01  0.1094E+00  0.4151E+01  0.4078E+01
      7.028  0.1615E-01  0.1297E+00  0.4153E+01  0.4086E+01
      7.094 -0.2318E-02  0.1567E+00  0.4152E+01  0.4097E+01
      7.159 -0.6297E-02  0.1806E+00  0.4152E+01  0.4108E+01
      7.225 -0.4343E-02  0.1910E+00  0.4152E+01  0.4121E+01
      7.291 -0.1940E-02  0.1800E+00  0.4152E+01  0.4133E+01
      7.357 -0.6360E-03  0.1454E+00  0.4152E+01  0.4142E+01
      7.422 -0.1597E-03  0.9548E-01  0.4152E+01  0.4149E+01
      7.488 -0.3128E-04  0.4644E-01  0.4152E+01  0.4152E+01
      7.554 -0.4833E-05  0.1241E-01  0.4152E+01  0.4153E+01
      7.620 -0.5923E-06 -0.3116E-02  0.4152E+01  0.4152E+01
      7.686 -0.5780E-07 -0.5965E-02  0.4152E+01  0.4152E+01
      7.751 -0.4504E-08 -0.3965E-02  0.4152E+01  0.4152E+01
      7.817 -0.2807E-09 -0.1761E-02  0.4152E+01  0.4152E+01
      7.883 -0.1402E-10 -0.5817E-03  0.4152E+01  0.4152E+01
      7.949 -0.5611E-12 -0.1483E-03  0.4152E+01  0.4152E+01
      8.015 -0.1802E-13 -0.2968E-04  0.4152E+01  0.4152E+01
      8.080 -0.4773E-15 -0.4702E-05  0.4152E+01  0.4152E+01
      8.146 -0.7577E-17 -0.5927E-06  0.4152E+01  0.4152E+01
      8.212  0.0000E+00 -0.5962E-07  0.4152E+01  0.4152E+01
      8.278  0.0000E+00 -0.4796E-08  0.4152E+01  0.4152E+01
      8.343  0.0000E+00 -0.3091E-09  0.4152E+01  0.4152E+01
      8.409  0.0000E+00 -0.1597E-10  0.4152E+01  0.4152E+01
      8.475  0.0000E+00 -0.6619E-12  0.4152E+01  0.4152E+01
      8.541  0.0000E+00 -0.2203E-13  0.4152E+01  0.4152E+01
      8.607  0.0000E+00 -0.5910E-15  0.4152E+01  0.4152E+01
      8.672  0.0000E+00 -0.1515E-16  0.4152E+01  0.4152E+01
      8.738  0.0000E+00  0.0000E+00  0.4152E+01  0.4152E+01
      8.804  0.0000E+00  0.0000E+00  0.4152E+01  0.4152E+01
      8.870  0.0000E+00  0.0000E+00  0.4152E+01  0.4152E+01
      8.935  0.0000E+00  0.0000E+00  0.4152E+01  0.4152E+01
      9.001  0.0000E+00  0.0000E+00  0.4152E+01  0.4152E+01
      9.067  0.0000E+00  0.0000E+00  0.4152E+01  0.4152E+01
      9.133  0.0000E+00  0.0000E+00  0.4152E+01  0.4152E+01
      9.199  0.0000E+00  0.0000E+00  0.4152E+01  0.4152E+01
      9.264  0.0000E+00  0.0000E+00  0.4152E+01  0.4152E+01
      9.330  0.0000E+00  0.0000E+00  0.4152E+01  0.4152E+01
      9.396  0.0000E+00  0.0000E+00  0.4152E+01  0.4152E+01
      9.39595807    -10.33896950  301      0.01360657      1.00000000
    -10.339  0.0000E+00  0.0000E+00  0.0000E+00  0.0000E+00  0.0000E+00  0.0000E+00
    -10.273  0.0000E+00  0.0000E+00  0.0000E+00  0.0000E+00  0.0000E+00  0.0000E+00
    -10.207  0.0000E+00  0.0000E+00  0.0000E+00  0.0000E+00  0.0000E+00  0.0000E+00
    -10.142  0.0000E+00  0.0000E+00  0.0000E+00  0.0000E+00  0.0000E+00  0.0000E+00
    -10.076  0.0000E+00  0.0000E+00  0.0000E+00  0.0000E+00  0.0000E+00  0.0000E+00
    -10.010  0.0000E+00  0.0000E+00  0.0000E+00  0.0000E+00  0.0000E+00  0.0000E+00
     -9.944 -0.6537E-29  0.0000E+00 -0.3800E-31  0.0000E+00 -0.1803E-31  0.0000E+00
     -9.878 -0.1098E-26 -0.3519E-30 -0.6386E-29 -0.1577E-32 -0.3030E-29 -0.1116E-32
     -9.813 -0.1491E-24 -0.6697E-28 -0.8665E-27 -0.3002E-30 -0.4112E-27 -0.2124E-30
     -9.747 -0.1625E-22 -0.1029E-25 -0.9448E-25 -0.4611E-28 -0.4484E-25 -0.3262E-28
     -9.681 -0.1424E-20 -0.1270E-23 -0.8276E-23 -0.5692E-26 -0.3927E-23 -0.4027E-26
     -9.615 -0.1001E-18 -0.1260E-21 -0.5821E-21 -0.5645E-24 -0.2762E-21 -0.3995E-24
     -9.550 -0.5654E-17 -0.1003E-19 -0.3287E-19 -0.4497E-22 -0.1560E-19 -0.3182E-22
     -9.484 -0.2485E-15 -0.6419E-18 -0.1445E-17 -0.2877E-20 -0.6856E-18 -0.2036E-20
     -9.418 -0.8989E-14 -0.3129E-16 -0.5226E-16 -0.1402E-18 -0.2480E-16 -0.9922E-19
     -9.352 -0.2605E-12 -0.1315E-14 -0.1514E-14 -0.5895E-17 -0.7186E-15 -0.4171E-17
     -9.286 -0.6036E-11 -0.4319E-13 -0.3509E-13 -0.1936E-15 -0.1665E-13 -0.1370E-15
     -9.221 -0.1117E-09 -0.1136E-11 -0.6496E-12 -0.5094E-14 -0.3082E-12 -0.3604E-14
     -9.155 -0.1648E-08 -0.2390E-10 -0.9587E-11 -0.1071E-12 -0.4547E-11 -0.7579E-13
     -9.089 -0.1933E-07 -0.4011E-09 -0.1126E-09 -0.1799E-11 -0.5334E-10 -0.1272E-11
     -9.023 -0.1797E-06 -0.5360E-08 -0.1049E-08 -0.2406E-10 -0.4959E-09 -0.1700E-10
     -8.958 -0.1318E-05 -0.5689E-07 -0.7722E-08 -0.2557E-09 -0.3636E-08 -0.1804E-09
     -8.892 -0.7572E-05 -0.4777E-06 -0.4480E-07 -0.2155E-08 -0.2089E-07 -0.1515E-08
     -8.826 -0.3372E-04 -0.3155E-05 -0.2042E-06 -0.1435E-07 -0.9298E-07 -0.1000E-07
     -8.760 -0.1144E-03 -0.1626E-04 -0.7325E-06 -0.7542E-07 -0.3153E-06 -0.5156E-07
     -8.694 -0.2868E-03 -0.6459E-04 -0.2104E-05 -0.3132E-06 -0.7892E-06 -0.2047E-06
     -8.629 -0.4957E-03 -0.1934E-03 -0.5091E-05 -0.1043E-05 -0.1358E-05 -0.6121E-06
     -8.563 -0.4662E-03 -0.4190E-03 -0.1125E-04 -0.2898E-05 -0.1248E-05 -0.1321E-05
     -8.497  0.2134E-03 -0.5909E-03 -0.2322E-04 -0.7218E-05  0.6989E-06 -0.1841E-05
     -8.431  0.1773E-02 -0.3126E-03 -0.3766E-04 -0.1688E-04  0.5108E-05 -0.8810E-06
     -8.365  0.4513E-02  0.8210E-03 -0.2063E-04 -0.3413E-04  0.1266E-04  0.2873E-05
     -8.300  0.9928E-02  0.3016E-02  0.1129E-03 -0.4471E-04  0.2709E-04  0.9978E-05
     -8.234  0.2019E-01  0.7067E-02  0.4425E-03  0.1211E-04  0.5399E-04  0.2252E-04
     -8.168  0.3388E-01  0.1523E-01  0.8976E-03  0.2364E-03  0.8946E-04  0.4692E-04
     -8.102  0.4324E-01  0.2873E-01  0.1205E-02  0.6567E-03  0.1127E-03  0.8666E-04
     -8.037  0.4005E-01  0.4275E-01  0.1111E-02  0.1094E-02  0.1023E-03  0.1272E-03
     -7.971  0.2527E-01  0.4732E-01  0.6849E-03  0.1240E-02  0.6345E-04  0.1393E-03
     -7.905  0.9509E-02  0.3719E-01  0.3235E-03  0.9808E-03  0.2907E-04  0.1097E-03
     -7.839  0.3720E-02  0.1910E-01  0.4088E-03  0.5931E-03  0.3047E-04  0.6330E-04
     -7.773  0.1105E-01  0.6213E-02  0.9939E-03  0.4941E-03  0.7102E-04  0.4065E-04
     -7.708  0.2613E-01  0.6838E-02  0.1831E-02  0.8133E-03  0.1320E-03  0.5692E-04
     -7.642  0.4052E-01  0.1911E-01  0.2688E-02  0.1314E-02  0.2027E-03  0.9292E-04
     -7.576  0.4956E-01  0.3442E-01  0.3554E-02  0.1803E-02  0.2931E-03  0.1299E-03
     -7.510  0.5375E-01  0.4572E-01  0.4381E-02  0.2481E-02  0.3990E-03  0.1829E-03
     -7.445  0.5313E-01  0.5294E-01  0.4755E-02  0.3632E-02  0.4655E-03  0.2788E-03
     -7.379  0.4486E-01  0.5822E-01  0.4162E-02  0.4918E-02  0.4240E-03  0.3947E-03
     -7.313  0.2899E-01  0.5834E-01  0.2669E-02  0.5382E-02  0.2756E-03  0.4484E-03
     -7.247  0.1181E-01  0.4775E-01  0.9867E-03  0.4417E-02  0.9932E-04  0.3783E-03
     -7.181  0.3340E-03  0.2838E-01 -0.2006E-03  0.2496E-02 -0.2734E-04  0.2181E-03
     -7.116 -0.2946E-02  0.9728E-02 -0.5752E-03  0.6730E-03 -0.6024E-04  0.6154E-04
     -7.050  0.2665E-02 -0.7013E-03  0.3606E-03 -0.4146E-03  0.1003E-03 -0.2912E-04
     -6.984  0.1978E-01 -0.1971E-02  0.3555E-02 -0.6186E-03  0.6531E-03 -0.3330E-04
     -6.918  0.4834E-01  0.5155E-02  0.9124E-02  0.5401E-03  0.1676E-02  0.1155E-03
     -6.852  0.7764E-01  0.2216E-01  0.1473E-01  0.4056E-02  0.2800E-02  0.5601E-03
     -6.787  0.8970E-01  0.4849E-01  0.1664E-01  0.9949E-02  0.3327E-02  0.1358E-02
     -6.721  0.7581E-01  0.7532E-01  0.1354E-01  0.1570E-01  0.2914E-02  0.2261E-02
     -6.655  0.4739E-01  0.8823E-01  0.8394E-02  0.1756E-01  0.2068E-02  0.2785E-02
     -6.589  0.2616E-01  0.7906E-01  0.5589E-02  0.1439E-01  0.1720E-02  0.2638E-02
     -6.524  0.2456E-01  0.5459E-01  0.6730E-02  0.9124E-02  0.2295E-02  0.2061E-02
     -6.458  0.3740E-01  0.3186E-01  0.9872E-02  0.5892E-02  0.3365E-02  0.1630E-02
     -6.392  0.5023E-01  0.2411E-01  0.1212E-01  0.6206E-02  0.4171E-02  0.1739E-02
     -6.326  0.5229E-01  0.3141E-01  0.1208E-01  0.8641E-02  0.4271E-02  0.2333E-02
     -6.260  0.4230E-01  0.4369E-01  0.9967E-02  0.1110E-01  0.3642E-02  0.3086E-02
     -6.195  0.2571E-01  0.5054E-01  0.6588E-02  0.1236E-01  0.2444E-02  0.3635E-02
     -6.129  0.9893E-02  0.4734E-01  0.3051E-02  0.1182E-01  0.1047E-02  0.3667E-02
     -6.063  0.2087E-02  0.3522E-01  0.1112E-02  0.9268E-02  0.2706E-03  0.2997E-02
     -5.997  0.8692E-02  0.1895E-01  0.2911E-02  0.5315E-02  0.1304E-02  0.1762E-02
     -5.932  0.3261E-01  0.5062E-02  0.9632E-02  0.1586E-02  0.5077E-02  0.5054E-03
     -5.866  0.6836E-01 -0.4846E-04  0.1994E-01  0.5613E-04  0.1124E-01 -0.3499E-04
     -5.800  0.9993E-01  0.8104E-02  0.2960E-01  0.2267E-02  0.1750E-01  0.8359E-03
     -5.734  0.1088E+00  0.3101E-01  0.3351E-01  0.8898E-02  0.2052E-01  0.3673E-02
     -5.668  0.8954E-01  0.6514E-01  0.2974E-01  0.1912E-01  0.1888E-01  0.8529E-02
     -5.603  0.5768E-01  0.9898E-01  0.2186E-01  0.2978E-01  0.1518E-01  0.1414E-01
     -5.537  0.3610E-01  0.1151E+00  0.1613E-01  0.3606E-01  0.1396E-01  0.1781E-01
     -5.471  0.3358E-01  0.1017E+00  0.1550E-01  0.3440E-01  0.1659E-01  0.1718E-01
     -5.405  0.3886E-01  0.6538E-01  0.1692E-01  0.2564E-01  0.1910E-01  0.1268E-01
     -5.339  0.3604E-01  0.2772E-01  0.1535E-01  0.1491E-01  0.1625E-01  0.7528E-02
     -5.274  0.2270E-01  0.8606E-02  0.9999E-02  0.8307E-02  0.8093E-02  0.5169E-02
     -5.208  0.1222E-01  0.1315E-01  0.6028E-02  0.8847E-02  0.2462E-02  0.6976E-02
     -5.142  0.2103E-01  0.3154E-01  0.1022E-01  0.1476E-01  0.1084E-01  0.1176E-01
     -5.076  0.5402E-01  0.4693E-01  0.2466E-01  0.2061E-01  0.4050E-01  0.1631E-01
     -5.011  0.9921E-01  0.4678E-01  0.4361E-01  0.2112E-01  0.8855E-01  0.1704E-01
     -4.945  0.1351E+00  0.3166E-01  0.5662E-01  0.1546E-01  0.1435E+00  0.1267E-01
     -4.879  0.1459E+00  0.1350E-01  0.5627E-01  0.8047E-02  0.1929E+00  0.6154E-02
     -4.813  0.1321E+00  0.5583E-02  0.4388E-01  0.5348E-02  0.2287E+00  0.3582E-02
     -4.747  0.1062E+00  0.1523E-01  0.2755E-01  0.1167E-01  0.2467E+00  0.1084E-01
     -4.682  0.8163E-01  0.4236E-01  0.1565E-01  0.2670E-01  0.2473E+00  0.2943E-01
     -4.616  0.6526E-01  0.7884E-01  0.1246E-01  0.4489E-01  0.2409E+00  0.5378E-01
     -4.550  0.5817E-01  0.1091E+00  0.1788E-01  0.5763E-01  0.2455E+00  0.7377E-01
     -4.484  0.5722E-01  0.1185E+00  0.2867E-01  0.5878E-01  0.2710E+00  0.8242E-01
     -4.418  0.5663E-01  0.1048E+00  0.4002E-01  0.4922E-01  0.3126E+00  0.8086E-01
     -4.353  0.5198E-01  0.7951E-01  0.4840E-01  0.3524E-01  0.3650E+00  0.7457E-01
     -4.287  0.4391E-01  0.5658E-01  0.5359E-01  0.2281E-01  0.4354E+00  0.6735E-01
     -4.221  0.3650E-01  0.4234E-01  0.5757E-01  0.1441E-01  0.5317E+00  0.6183E-01
     -4.155  0.3265E-01  0.3598E-01  0.6138E-01  0.1066E-01  0.6422E+00  0.6296E-01
     -4.090  0.3231E-01  0.3499E-01  0.6371E-01  0.1247E-01  0.7370E+00  0.7706E-01
     -4.024  0.3346E-01  0.3934E-01  0.6231E-01  0.2036E-01  0.7860E+00  0.1102E+00
     -3.958  0.3354E-01  0.5212E-01  0.5673E-01  0.3225E-01  0.7809E+00  0.1687E+00
     -3.892  0.3080E-01  0.7428E-01  0.4974E-01  0.4329E-01  0.7463E+00  0.2525E+00
     -3.826  0.2538E-01  0.9745E-01  0.4570E-01  0.4891E-01  0.7237E+00  0.3422E+00
     -3.761  0.1914E-01  0.1072E+00  0.4697E-01  0.4874E-01  0.7353E+00  0.4060E+00
     -3.695  0.1409E-01  0.9677E-01  0.5203E-01  0.4654E-01  0.7650E+00  0.4275E+00
     -3.629  0.1103E-01  0.7450E-01  0.5738E-01  0.4604E-01  0.7803E+00  0.4240E+00
     -3.563  0.9349E-02  0.5468E-01  0.6089E-01  0.4789E-01  0.7648E+00  0.4336E+00
     -3.498  0.7971E-02  0.4465E-01  0.6269E-01  0.5050E-01  0.7257E+00  0.4799E+00
     -3.432  0.6393E-02  0.4177E-01  0.6360E-01  0.5196E-01  0.6812E+00  0.5430E+00
     -3.366  0.4907E-02  0.3953E-01  0.6379E-01  0.5094E-01  0.6477E+00  0.5714E+00
     -3.300  0.4081E-02  0.3423E-01  0.6291E-01  0.4754E-01  0.6363E+00  0.5396E+00
     -3.234  0.4138E-02  0.2752E-01  0.6067E-01  0.4402E-01  0.6483E+00  0.4938E+00
     -3.169  0.4788E-02  0.2382E-01  0.5713E-01  0.4342E-01  0.6673E+00  0.5219E+00
     -3.103  0.5541E-02  0.2529E-01  0.5336E-01  0.4647E-01  0.6666E+00  0.6747E+00
     -3.037  0.6196E-02  0.2941E-01  0.5167E-01  0.5030E-01  0.6375E+00  0.9205E+00
     -2.971  0.6958E-02  0.3142E-01  0.5434E-01  0.5097E-01  0.6095E+00  0.1166E+01
     -2.905  0.8088E-02  0.2879E-01  0.6126E-01  0.4777E-01  0.6280E+00  0.1312E+01
     -2.840  0.9465E-02  0.2309E-01  0.6918E-01  0.4493E-01  0.7151E+00  0.1303E+01
     -2.774  0.1063E-01  0.1785E-01  0.7356E-01  0.4783E-01  0.8567E+00  0.1166E+01
     -2.708  0.1128E-01  0.1495E-01  0.7198E-01  0.5699E-01  0.1024E+01  0.9953E+00
     -2.642  0.1173E-01  0.1368E-01  0.6606E-01  0.6679E-01  0.1197E+01  0.8805E+00
     -2.577  0.1250E-01  0.1261E-01  0.6002E-01  0.7074E-01  0.1364E+01  0.8394E+00
     -2.511  0.1368E-01  0.1122E-01  0.5708E-01  0.6768E-01  0.1509E+01  0.8254E+00
     -2.445  0.1477E-01  0.9740E-02  0.5720E-01  0.6188E-01  0.1604E+01  0.7939E+00
     -2.379  0.1521E-01  0.8397E-02  0.5814E-01  0.5796E-01  0.1629E+01  0.7457E+00
     -2.313  0.1486E-01  0.7250E-02  0.5791E-01  0.5706E-01  0.1588E+01  0.7104E+00
     -2.248  0.1372E-01  0.6383E-02  0.5564E-01  0.5779E-01  0.1503E+01  0.7111E+00
     -2.182  0.1180E-01  0.5891E-02  0.5089E-01  0.5906E-01  0.1379E+01  0.7481E+00
     -2.116  0.9362E-02  0.5799E-02  0.4380E-01  0.6111E-01  0.1216E+01  0.8032E+00
     -2.050  0.7042E-02  0.6033E-02  0.3575E-01  0.6469E-01  0.1042E+01  0.8568E+00
     -1.985  0.5406E-02  0.6418E-02  0.2905E-01  0.7023E-01  0.9199E+00  0.9104E+00
     -1.919  0.4531E-02  0.6721E-02  0.2541E-01  0.7693E-01  0.8940E+00  0.9865E+00
     -1.853  0.4141E-02  0.6794E-02  0.2496E-01  0.8214E-01  0.9543E+00  0.1098E+01
     -1.787  0.4032E-02  0.6759E-02  0.2636E-01  0.8252E-01  0.1055E+01  0.1223E+01
     -1.721  0.4251E-02  0.7069E-02  0.2786E-01  0.7692E-01  0.1161E+01  0.1328E+01
     -1.656  0.4863E-02  0.8205E-02  0.2832E-01  0.6774E-01  0.1259E+01  0.1399E+01
     -1.590  0.5672E-02  0.1018E-01  0.2741E-01  0.5929E-01  0.1351E+01  0.1448E+01
     -1.524  0.6252E-02  0.1236E-01  0.2526E-01  0.5479E-01  0.1428E+01  0.1496E+01
     -1.458  0.6317E-02  0.1403E-01  0.2234E-01  0.5473E-01  0.1481E+01  0.1548E+01
     -1.392  0.5979E-02  0.1491E-01  0.1955E-01  0.5743E-01  0.1511E+01  0.1588E+01
     -1.327  0.5541E-02  0.1509E-01  0.1776E-01  0.6087E-01  0.1528E+01  0.1594E+01