       N       E                     dE             d eps       ncg     rms          rms(c)
DAV:   1     0.482790368203E+04    0.48279E+04   -0.24418E+05  8220   0.150E+03
DAV:   2     0.308417290661E+02   -0.47971E+04   -0.44840E+04  8220   0.348E+02
DAV:   3    -0.450667575037E+03   -0.48151E+03   -0.41526E+03  8526   0.160E+02
DAV:   4    -0.473079594833E+03   -0.22412E+02   -0.21755E+02  8799   0.370E+01
DAV:   5    -0.473520305509E+03   -0.44071E+00   -0.43968E+00  9294   0.475E+00    0.862E+01
RMM:   6    -0.793043247016E+03   -0.31952E+03   -0.94216E+02  8376   0.840E+01    0.202E+02
RMM:   7    -0.555528785118E+03    0.23751E+03   -0.28088E+02  8247   0.453E+01    0.156E+02
RMM:   8    -0.581231355003E+03   -0.25703E+02   -0.11851E+02  8275   0.273E+01    0.186E+02
RMM:   9    -0.460224773863E+03    0.12101E+03   -0.86986E+01  8283   0.231E+01    0.128E+02
RMM:  10    -0.449553141655E+03    0.10672E+02   -0.12130E+02  8235   0.256E+01    0.103E+02
RMM:  11    -0.436610694654E+03    0.12942E+02   -0.11131E+02  8260   0.269E+01    0.109E+02
RMM:  12    -0.368210780066E+03    0.68400E+02   -0.46175E+01  8299   0.185E+01    0.644E+01
RMM:  13    -0.380822137426E+03   -0.12611E+02   -0.28248E+01  8300   0.133E+01    0.704E+01
RMM:  14    -0.371012335217E+03    0.98098E+01   -0.15790E+01  8299   0.104E+01    0.423E+01
RMM:  15    -0.371834185790E+03   -0.82185E+00   -0.11923E+01  8299   0.871E+00    0.369E+01
RMM:  16    -0.379176648199E+03   -0.73425E+01   -0.73034E+00  8295   0.664E+00    0.462E+01
RMM:  17    -0.378762380181E+03    0.41427E+00   -0.75316E+00  8294   0.704E+00    0.281E+01
RMM:  18    -0.382987939065E+03   -0.42256E+01   -0.37776E+00  8291   0.470E+00    0.278E+01
RMM:  19    -0.389000929645E+03   -0.60130E+01   -0.43787E+00  8289   0.461E+00    0.241E+01
RMM:  20    -0.394283524441E+03   -0.52826E+01   -0.45236E+00  8287   0.478E+00    0.210E+01
RMM:  21    -0.399489222737E+03   -0.52057E+01   -0.49135E+00  8284   0.469E+00    0.230E+01
RMM:  22    -0.401721546677E+03   -0.22323E+01   -0.35982E+00  8284   0.424E+00    0.167E+01
RMM:  23    -0.402875652088E+03   -0.11541E+01   -0.16684E+00  8274   0.243E+00    0.145E+01
RMM:  24    -0.403804060178E+03   -0.92841E+00   -0.10223E+00  8275   0.200E+00    0.114E+01
RMM:  25    -0.405957868325E+03   -0.21538E+01   -0.15227E+00  8265   0.215E+00    0.106E+01
RMM:  26    -0.407512953280E+03   -0.15551E+01   -0.13536E+00  8269   0.221E+00    0.903E+00
RMM:  27    -0.408329464931E+03   -0.81651E+00   -0.74735E-01  8277   0.169E+00    0.903E+00
RMM:  28    -0.408243535053E+03    0.85930E-01   -0.34300E-01  8279   0.139E+00    0.591E+00
RMM:  29    -0.409369738123E+03   -0.11262E+01   -0.58126E-01  8255   0.138E+00    0.768E+00
RMM:  30    -0.409960038450E+03   -0.59030E+00   -0.37282E-01  8260   0.121E+00    0.591E+00
RMM:  31    -0.410660085398E+03   -0.70005E+00   -0.23507E-01  8265   0.874E-01    0.536E+00
RMM:  32    -0.410974009975E+03   -0.31392E+00   -0.13469E-01  8252   0.672E-01    0.318E+00
RMM:  33    -0.411357260492E+03   -0.38325E+00   -0.16777E-01  8242   0.669E-01    0.380E+00
RMM:  34    -0.411511142117E+03   -0.15388E+00   -0.10842E-01  8265   0.655E-01    0.347E+00
RMM:  35    -0.411536791146E+03   -0.25649E-01   -0.11033E-01  8252   0.646E-01    0.367E+00
RMM:  36    -0.411458321020E+03    0.78470E-01   -0.54231E-02  8279   0.530E-01    0.180E+00
RMM:  37    -0.411478483152E+03   -0.20162E-01   -0.21807E-02  8275   0.309E-01    0.187E+00
RMM:  38    -0.411507802691E+03   -0.29320E-01   -0.13506E-02  8272   0.245E-01    0.136E+00
RMM:  39    -0.411554356965E+03   -0.46554E-01   -0.90892E-03  8273   0.201E-01    0.126E+00
RMM:  40    -0.411618110058E+03   -0.63753E-01   -0.91454E-03  8265   0.180E-01    0.702E-01
RMM:  41    -0.411652242326E+03   -0.34132E-01   -0.31613E-03  8273   0.121E-01    0.711E-01
RMM:  42    -0.411703972728E+03   -0.51730E-01   -0.27812E-03  8267   0.102E-01    0.589E-01
RMM:  43    -0.411735882738E+03   -0.31910E-01   -0.15554E-03  8265   0.758E-02    0.530E-01
RMM:  44    -0.411795748734E+03   -0.59866E-01   -0.16148E-03  8267   0.753E-02    0.478E-01
RMM:  45    -0.411853739625E+03   -0.57991E-01   -0.14110E-03  8260   0.727E-02    0.399E-01
RMM:  46    -0.411941006972E+03   -0.87267E-01   -0.17722E-03  8264   0.731E-02    0.638E-01
RMM:  47    -0.411999747233E+03   -0.58740E-01   -0.77154E-04  8253   0.526E-02    0.602E-01
RMM:  48    -0.412024958836E+03   -0.25212E-01   -0.34829E-04  8215   0.348E-02    0.949E-01
RMM:  49    -0.412032130591E+03   -0.71718E-02   -0.75497E-05  7660   0.152E-02    0.110E+00
RMM:  50    -0.412037852453E+03   -0.57219E-02   -0.37285E-05  6226   0.110E-02    0.970E-01
RMM:  51    -0.412050441957E+03   -0.12590E-01   -0.18889E-03  8251   0.673E-02    0.429E-01
RMM:  52    -0.412090727152E+03   -0.40285E-01   -0.48787E-04  8224   0.416E-02    0.166E-01
RMM:  53    -0.412105820474E+03   -0.15093E-01   -0.20453E-04  8208   0.315E-02    0.140E-01
RMM:  54    -0.412132929471E+03   -0.27109E-01   -0.31872E-04  8190   0.265E-02    0.203E-01
RMM:  55    -0.412143154561E+03   -0.10225E-01   -0.14720E-04  8154   0.235E-02    0.189E-01
RMM:  56    -0.412150807349E+03   -0.76528E-02   -0.27530E-04  8198   0.302E-02    0.298E-01
RMM:  57    -0.412158125440E+03   -0.73181E-02   -0.13034E-04  8034   0.196E-02    0.352E-01
RMM:  58    -0.412160464746E+03   -0.23393E-02   -0.44283E-05  6494   0.135E-02    0.343E-01
RMM:  59    -0.412164399630E+03   -0.39349E-02   -0.11623E-04  7237   0.144E-02    0.204E-01
RMM:  60    -0.412165741083E+03   -0.13415E-02   -0.34987E-05  5865   0.110E-02    0.191E-01
RMM:  61    -0.412166352153E+03   -0.61107E-03   -0.21285E-05  5508   0.103E-02    0.161E-01
RMM:  62    -0.412167581379E+03   -0.12292E-02   -0.34998E-05  5905   0.891E-03    0.101E-01
RMM:  63    -0.412167935737E+03   -0.35436E-03   -0.13449E-05  5361   0.643E-03    0.596E-02
RMM:  64    -0.412168295600E+03   -0.35986E-03   -0.13879E-05  5469   0.610E-03    0.138E-02
RMM:  65    -0.412168657193E+03   -0.36159E-03   -0.11506E-05  5373   0.519E-03    0.145E-02
RMM:  66    -0.412168792564E+03   -0.13537E-03   -0.51588E-06  4961   0.455E-03    0.226E-02
RMM:  67    -0.412168955521E+03   -0.16296E-03   -0.47289E-06  5013   0.358E-03    0.221E-02
RMM:  68    -0.412169105211E+03   -0.14969E-03   -0.52425E-06  5057   0.299E-03    0.809E-03
RMM:  69    -0.412169201054E+03   -0.95843E-04   -0.23515E-06  4627   0.255E-03    0.123E-02
RMM:  70    -0.412169282879E+03   -0.81825E-04   -0.15144E-06  4462   0.208E-03    0.176E-02
RMM:  71    -0.412169330665E+03   -0.47786E-04   -0.14334E-06  4340   0.181E-03    0.215E-02
RMM:  72    -0.412169394253E+03   -0.63588E-04   -0.17129E-06  4368   0.179E-03    0.284E-02
RMM:  73    -0.412169428392E+03   -0.34139E-04   -0.67845E-07  3698   0.148E-03    0.261E-02
RMM:  74    -0.412169445100E+03   -0.16708E-04   -0.76861E-07  3153   0.124E-03    0.208E-02
RMM:  75    -0.412169462042E+03   -0.16942E-04   -0.48478E-07  3084   0.118E-03    0.187E-02
RMM:  76    -0.412169464351E+03   -0.23087E-05   -0.42525E-07  3364   0.124E-03
   1 F= -.41216946E+03 E0= -.41217274E+03  d E =-.412169E+03  mag=   103.9531
       N       E                     dE             d eps       ncg     rms          rms(c)
DAV:   1    -0.410679181711E+03    0.14903E+01   -0.44712E+02  8340   0.315E+01    0.167E+01
RMM:   2    -0.436942424945E+03   -0.26263E+02   -0.38264E+01  8253   0.170E+01    0.722E+01
RMM:   3    -0.430823611290E+03    0.61188E+01   -0.13381E+01  8256   0.917E+00    0.577E+01
RMM:   4    -0.416668709137E+03    0.14155E+02   -0.65066E+00  8284   0.610E+00    0.249E+01
RMM:   5    -0.414644342760E+03    0.20244E+01   -0.33957E+00  8271   0.459E+00    0.174E+01
RMM:   6    -0.413864788477E+03    0.77955E+00   -0.13685E+00  8273   0.307E+00    0.818E+00
RMM:   7    -0.413764189938E+03    0.10060E+00   -0.24568E-01  8282   0.125E+00    0.583E+00
RMM:   8    -0.413698535304E+03    0.65655E-01   -0.10969E-01  8271   0.877E-01    0.390E+00
RMM:   9    -0.413744350092E+03   -0.45815E-01   -0.13994E-01  8279   0.876E-01    0.497E+00
RMM:  10    -0.413640373500E+03    0.10398E+00   -0.10160E-01  8280   0.808E-01    0.154E+00
RMM:  11    -0.413642548346E+03   -0.21748E-02   -0.44579E-02  8271   0.494E-01    0.223E+00
RMM:  12    -0.413605513091E+03    0.37035E-01   -0.23736E-02  8277   0.390E-01    0.104E+00
RMM:  13    -0.413599908524E+03    0.56046E-02   -0.12733E-02  8275   0.273E-01    0.138E+00
RMM:  14    -0.413590785068E+03    0.91235E-02   -0.75487E-03  8275   0.222E-01    0.552E-01
RMM:  15    -0.413591874373E+03   -0.10893E-02   -0.26402E-03  8263   0.126E-01    0.510E-01
RMM:  16    -0.413601330116E+03   -0.94557E-02   -0.17828E-03  8266   0.102E-01    0.546E-01
RMM:  17    -0.413606754905E+03   -0.54248E-02   -0.11339E-03  8265   0.848E-02    0.414E-01
RMM:  18    -0.413619222937E+03   -0.12468E-01   -0.67868E-04  8252   0.556E-02    0.332E-01
RMM:  19    -0.413625937222E+03   -0.67143E-02   -0.40881E-04  8222   0.482E-02    0.206E-01
RMM:  20    -0.413650096901E+03   -0.24160E-01   -0.11662E-03  8255   0.560E-02    0.272E-01
RMM:  21    -0.413660226188E+03   -0.10129E-01   -0.58573E-04  8247   0.484E-02    0.171E-01
RMM:  22    -0.413674761699E+03   -0.14536E-01   -0.91868E-04  8266   0.477E-02    0.227E-01
RMM:  23    -0.413682045495E+03   -0.72838E-02   -0.57458E-04  8227   0.421E-02    0.812E-02
RMM:  24    -0.413686470867E+03   -0.44254E-02   -0.31140E-04  8225   0.302E-02    0.130E-01
RMM:  25    -0.413690136121E+03   -0.36653E-02   -0.27244E-04  8161   0.250E-02    0.485E-02
RMM:  26    -0.413690929300E+03   -0.79318E-03   -0.55332E-05  6753   0.138E-02    0.601E-02
RMM:  27    -0.413691830640E+03   -0.90134E-03   -0.78685E-05  6713   0.124E-02    0.316E-02
RMM:  28    -0.413691924879E+03   -0.94239E-04   -0.12662E-05  5170   0.707E-03    0.252E-02
RMM:  29    -0.413692066051E+03   -0.14117E-03   -0.11724E-05  4963   0.570E-03    0.165E-02
RMM:  30    -0.413692109295E+03   -0.43244E-04   -0.28243E-06  4578   0.389E-03    0.139E-02
RMM:  31    -0.413692222468E+03   -0.11317E-03   -0.24623E-06  4621   0.283E-03    0.836E-03
RMM:  32    -0.413692269964E+03   -0.47496E-04   -0.10106E-06  4431   0.223E-03    0.724E-03
RMM:  33    -0.413692374431E+03   -0.10447E-03   -0.15202E-06  4252   0.182E-03    0.537E-03
RMM:  34    -0.413692418945E+03   -0.44514E-04   -0.56232E-07  3941   0.148E-03    0.462E-03
RMM:  35    -0.413692564278E+03   -0.14533E-03   -0.23973E-06  3756   0.153E-03    0.390E-03
RMM:  36    -0.413692633534E+03   -0.69256E-04   -0.10280E-06  3754   0.138E-03    0.431E-03
RMM:  37    -0.413692765726E+03   -0.13219E-03   -0.28286E-06  4035   0.161E-03    0.414E-03
RMM:  38    -0.413692802379E+03   -0.36653E-04   -0.57002E-07  2758   0.112E-03    0.369E-03
RMM:  39    -0.413692859450E+03   -0.57071E-04   -0.84265E-07  2466   0.110E-03    0.289E-03
RMM:  40    -0.413692882998E+03   -0.23548E-04   -0.30472E-07  1842   0.976E-04    0.284E-03
RMM:  41    -0.413692921090E+03   -0.38093E-04   -0.67820E-07  2389   0.103E-03    0.313E-03
RMM:  42    -0.413692928836E+03   -0.77457E-05   -0.17125E-07  1448   0.891E-04
   2 F= -.41369293E+03 E0= -.41369686E+03  d E =-.152346E+01  mag=   104.9398
       N       E                     dE             d eps       ncg     rms          rms(c)
DAV:   1    -0.412804254645E+03    0.88867E+00   -0.16717E+02  8268   0.189E+01    0.969E+00
RMM:   2    -0.417933850369E+03   -0.51296E+01   -0.80461E+00  8260   0.807E+00    0.299E+01
RMM:   3    -0.419672495068E+03   -0.17386E+01   -0.37752E+00  8264   0.480E+00    0.312E+01
RMM:   4    -0.415354608661E+03    0.43179E+01   -0.20120E+00  8284   0.334E+00    0.167E+01
RMM:   5    -0.414071904944E+03    0.12827E+01   -0.96846E-01  8275   0.257E+00    0.630E+00
RMM:   6    -0.413942296565E+03    0.12961E+00   -0.23655E-01  8266   0.124E+00    0.301E+00
RMM:   7    -0.413933191087E+03    0.91055E-02   -0.49322E-02  8275   0.563E-01    0.243E+00
RMM:   8    -0.413912056946E+03    0.21134E-01   -0.28247E-02  8272   0.445E-01    0.123E+00
RMM:   9    -0.413926517285E+03   -0.14460E-01   -0.29924E-02  8273   0.406E-01    0.239E+00
RMM:  10    -0.413903656120E+03    0.22861E-01   -0.19905E-02  8278   0.361E-01    0.664E-01
RMM:  11    -0.413909145406E+03   -0.54893E-02   -0.10391E-02  8266   0.247E-01    0.111E+00
RMM:  12    -0.413907026096E+03    0.21193E-02   -0.54023E-03  8276   0.192E-01    0.366E-01
RMM:  13    -0.413908583304E+03   -0.15572E-02   -0.16267E-03  8259   0.973E-02    0.389E-01
RMM:  14    -0.413910966235E+03   -0.23829E-02   -0.72209E-04  8239   0.681E-02    0.240E-01
RMM:  15    -0.413911971141E+03   -0.10049E-02   -0.30533E-04  8222   0.442E-02    0.125E-01
RMM:  16    -0.413915498350E+03   -0.35272E-02   -0.19309E-04  8217   0.313E-02    0.153E-01
RMM:  17    -0.413917630594E+03   -0.21322E-02   -0.12140E-04  8179   0.262E-02    0.928E-02
RMM:  18    -0.413920974383E+03   -0.33438E-02   -0.11783E-04  7914   0.208E-02    0.116E-01
RMM:  19    -0.413923692851E+03   -0.27185E-02   -0.91565E-05  7444   0.185E-02    0.650E-02
RMM:  20    -0.413926656232E+03   -0.29634E-02   -0.11203E-04  7657   0.175E-02    0.914E-02
RMM:  21    -0.413929402428E+03   -0.27462E-02   -0.11596E-04  7435   0.169E-02    0.421E-02
RMM:  22    -0.413931100214E+03   -0.16978E-02   -0.72755E-05  6997   0.137E-02    0.628E-02
RMM:  23    -0.413933081252E+03   -0.19810E-02   -0.10601E-04  7232   0.142E-02    0.257E-02
RMM:  24    -0.413933709514E+03   -0.62826E-03   -0.29850E-05  5847   0.932E-03    0.364E-02
RMM:  25    -0.413934600055E+03   -0.89054E-03   -0.64843E-05  6449   0.992E-03    0.180E-02
RMM:  26    -0.413934673717E+03   -0.73662E-04   -0.60285E-06  4814   0.484E-03    0.130E-02
RMM:  27    -0.413934753396E+03   -0.79680E-04   -0.40558E-06  4739   0.352E-03    0.882E-03
RMM:  28    -0.413934771037E+03   -0.17641E-04   -0.12189E-06  4499   0.253E-03    0.454E-03
RMM:  29    -0.413934799802E+03   -0.28765E-04   -0.96192E-07  4042   0.156E-03    0.484E-03
RMM:  30    -0.413934808385E+03   -0.85826E-05   -0.30328E-07  3567   0.132E-03
   3 F= -.41393481E+03 E0= -.41394001E+03  d E =-.176534E+01  mag=   105.3208
       N       E                     dE             d eps       ncg     rms          rms(c)
DAV:   1    -0.413733597871E+03    0.20120E+00   -0.98958E+01  8250   0.147E+01    0.645E+00
RMM:   2    -0.415285325105E+03   -0.15517E+01   -0.25161E+00  8271   0.448E+00    0.150E+01
RMM:   3    -0.415747797300E+03   -0.46247E+00   -0.17685E+00  8272   0.338E+00    0.164E+01
RMM:   4    -0.416227012563E+03   -0.47922E+00   -0.78082E-01  8280   0.208E+00    0.183E+01
RMM:   5    -0.414280454075E+03    0.19466E+01   -0.42541E-01  8269   0.167E+00    0.287E+00
RMM:   6    -0.414256682668E+03    0.23771E-01   -0.73051E-02  8278   0.657E-01    0.150E+00
RMM:   7    -0.414246269011E+03    0.10414E-01   -0.12896E-02  8282   0.306E-01    0.110E+00
RMM:   8    -0.414244939117E+03    0.13299E-02   -0.11642E-02  8269   0.271E-01    0.111E+00
RMM:   9    -0.414239523000E+03    0.54161E-02   -0.12152E-02  8280   0.256E-01    0.117E+00
RMM:  10    -0.414233786758E+03    0.57362E-02   -0.90253E-03  8272   0.236E-01    0.492E-01
RMM:  11    -0.414236849881E+03   -0.30631E-02   -0.31814E-03  8272   0.137E-01    0.662E-01
RMM:  12    -0.414236849755E+03    0.12609E-06   -0.17328E-03  8268   0.110E-01    0.251E-01
RMM:  13    -0.414238687640E+03   -0.18379E-02   -0.64637E-04  8243   0.616E-02    0.311E-01
RMM:  14    -0.414240676538E+03   -0.19889E-02   -0.30832E-04  8209   0.451E-02    0.104E-01
RMM:  15    -0.414242018830E+03   -0.13423E-02   -0.10367E-04  8140   0.244E-02    0.104E-01
RMM:  16    -0.414246572347E+03   -0.45535E-02   -0.12546E-04  7937   0.214E-02    0.114E-01
RMM:  17    -0.414248748571E+03   -0.21762E-02   -0.73628E-05  7665   0.192E-02    0.745E-02
RMM:  18    -0.414252458802E+03   -0.37102E-02   -0.97154E-05  7387   0.169E-02    0.855E-02
RMM:  19    -0.414255483574E+03   -0.30248E-02   -0.84450E-05  7133   0.161E-02    0.404E-02
RMM:  20    -0.414258535605E+03   -0.30520E-02   -0.96092E-05  7302   0.145E-02    0.677E-02
RMM:  21    -0.414261474064E+03   -0.29385E-02   -0.11839E-04  7254   0.148E-02    0.386E-02
RMM:  22    -0.414263051349E+03   -0.15773E-02   -0.58884E-05  6525   0.117E-02    0.500E-02
RMM:  23    -0.414265308980E+03   -0.22576E-02   -0.13203E-04  7236   0.133E-02    0.246E-02
RMM:  24    -0.414265694626E+03   -0.38565E-03   -0.18220E-05  5378   0.657E-03    0.240E-02
RMM:  25    -0.414266029137E+03   -0.33451E-03   -0.22285E-05  5635   0.610E-03    0.176E-02
RMM:  26    -0.414266065517E+03   -0.36380E-04   -0.43588E-06  4752   0.364E-03    0.152E-02
RMM:  27    -0.414266077202E+03   -0.11685E-04   -0.27132E-06  4727   0.267E-03    0.650E-03
RMM:  28    -0.414266082972E+03   -0.57701E-05   -0.62469E-07  3841   0.160E-03
   4 F= -.41426608E+03 E0= -.41427161E+03  d E =-.331275E+00  mag=   105.5410
       N       E                     dE             d eps       ncg     rms          rms(c)
DAV:   1    -0.412313847821E+03    0.19522E+01   -0.38375E+02  8220   0.295E+01    0.129E+01
RMM:   2    -0.418183690741E+03   -0.58698E+01   -0.12409E+01  8271   0.986E+00    0.297E+01
RMM:   3    -0.416988087445E+03    0.11956E+01   -0.72577E+00  8277   0.688E+00    0.220E+01
RMM:   4    -0.420550640068E+03   -0.35626E+01   -0.23113E+00  8276   0.376E+00    0.315E+01
RMM:   5    -0.414754816140E+03    0.57958E+01   -0.92545E-01  8273   0.236E+00    0.809E+00
RMM:   6    -0.414492586635E+03    0.26223E+00   -0.30663E-01  8282   0.137E+00    0.347E+00
RMM:   7    -0.414470002292E+03    0.22584E-01   -0.87963E-02  8277   0.755E-01    0.324E+00
RMM:   8    -0.414438862505E+03    0.31140E-01   -0.51774E-02  8266   0.593E-01    0.196E+00
RMM:   9    -0.414441623834E+03   -0.27613E-02   -0.57046E-02  8282   0.555E-01    0.296E+00
RMM:  10    -0.414407334681E+03    0.34289E-01   -0.46978E-02  8280   0.535E-01    0.140E+00
RMM:  11    -0.414406703646E+03    0.63104E-03   -0.21260E-02  8280   0.354E-01    0.150E+00
RMM:  12    -0.414401590058E+03    0.51136E-02   -0.12219E-02  8269   0.286E-01    0.664E-01
RMM:  13    -0.414409222459E+03   -0.76324E-02   -0.55723E-03  8274   0.180E-01    0.904E-01
RMM:  14    -0.414414448576E+03   -0.52261E-02   -0.28937E-03  8272   0.140E-01    0.271E-01
RMM:  15    -0.414419682530E+03   -0.52340E-02   -0.72158E-04  8263   0.639E-02    0.272E-01
RMM:  16    -0.414434347237E+03   -0.14665E-01   -0.47498E-04  8229   0.464E-02    0.235E-01
RMM:  17    -0.414441250816E+03   -0.69036E-02   -0.27256E-04  8220   0.385E-02    0.166E-01
RMM:  18    -0.414462186341E+03   -0.20936E-01   -0.52264E-04  8234   0.364E-02    0.192E-01
RMM:  19    -0.414474904457E+03   -0.12718E-01   -0.32002E-04  8218   0.322E-02    0.931E-02
RMM:  20    -0.414493249519E+03   -0.18345E-01   -0.52484E-04  8222   0.314E-02    0.146E-01
RMM:  21    -0.414508980976E+03   -0.15731E-01   -0.59322E-04  8199   0.307E-02    0.778E-02
RMM:  22    -0.414517737877E+03   -0.87569E-02   -0.36551E-04  8216   0.257E-02    0.112E-01
RMM:  23    -0.414524950102E+03   -0.72122E-02   -0.41932E-04  8157   0.246E-02    0.535E-02
RMM:  24    -0.414527385561E+03   -0.24355E-02   -0.12204E-04  7381   0.163E-02    0.616E-02
RMM:  25    -0.414530086747E+03   -0.27012E-02   -0.16126E-04  7423   0.152E-02    0.642E-02
RMM:  26    -0.414530752928E+03   -0.66618E-03   -0.39288E-05  6050   0.942E-03    0.578E-02
RMM:  27    -0.414531074588E+03   -0.32166E-03   -0.23616E-05  5475   0.771E-03    0.269E-02
RMM:  28    -0.414531148783E+03   -0.74195E-04   -0.50611E-06  4745   0.414E-03    0.225E-02
RMM:  29    -0.414531258381E+03   -0.10960E-03   -0.61505E-06  4888   0.385E-03    0.983E-03
RMM:  30    -0.414531317047E+03   -0.58666E-04   -0.27071E-06  4676   0.274E-03    0.111E-02
RMM:  31    -0.414531374762E+03   -0.57715E-04   -0.23650E-06  4678   0.266E-03    0.627E-03
RMM:  32    -0.414531431825E+03   -0.57063E-04   -0.16098E-06  4463   0.195E-03    0.781E-03
RMM:  33    -0.414531488684E+03   -0.56859E-04   -0.12919E-06  4368   0.188E-03    0.429E-03
RMM:  34    -0.414531555244E+03   -0.66560E-04   -0.15235E-06  4123   0.158E-03    0.530E-03
RMM:  35    -0.414531607156E+03   -0.51913E-04   -0.11817E-06  3958   0.156E-03    0.229E-03
RMM:  36    -0.414531645308E+03   -0.38152E-04   -0.70488E-07  2898   0.125E-03    0.314E-03
RMM:  37    -0.414531670601E+03   -0.25293E-04   -0.36623E-07  2522   0.107E-03    0.216E-03
RMM:  38    -0.414531695525E+03   -0.24924E-04   -0.48229E-07  2463   0.108E-03    0.418E-03
RMM:  39    -0.414531704056E+03   -0.85310E-05   -0.20685E-07  1992   0.961E-04
   5 F= -.41453170E+03 E0= -.41453723E+03  d E =-.596896E+00  mag=   105.8881
       N       E                     dE             d eps       ncg     rms          rms(c)
DAV:   1    -0.414252212209E+03    0.27948E+00   -0.95336E+01  8238   0.144E+01    0.567E+00
RMM:   2    -0.415233236588E+03   -0.98102E+00   -0.19057E+00  8279   0.387E+00    0.114E+01
RMM:   3    -0.416146224973E+03   -0.91299E+00   -0.14089E+00  8280   0.296E+00    0.163E+01
RMM:   4    -0.416048406347E+03    0.97819E-01   -0.60598E-01  8273   0.184E+00    0.154E+01
RMM:   5    -0.414714130644E+03    0.13343E+01   -0.35753E-01  8279   0.153E+00    0.301E+00
RMM:   6    -0.414681590720E+03    0.32540E-01   -0.61317E-02  8284   0.601E-01    0.120E+00
RMM:   7    -0.414676778999E+03    0.48117E-02   -0.12179E-02  8279   0.288E-01    0.119E+00
RMM:   8    -0.414673489207E+03    0.32898E-02   -0.10248E-02  8271   0.260E-01    0.105E+00
RMM:   9    -0.414670526673E+03    0.29625E-02   -0.11583E-02  8270   0.255E-01    0.127E+00
RMM:  10    -0.414662896112E+03    0.76306E-02   -0.88489E-03  8270   0.236E-01    0.441E-01
RMM:  11    -0.414666265329E+03   -0.33692E-02   -0.31440E-03  8261   0.136E-01    0.652E-01
RMM:  12    -0.414667303812E+03   -0.10385E-02   -0.13725E-03  8262   0.980E-02    0.215E-01
RMM:  13    -0.414668784261E+03   -0.14804E-02   -0.47185E-04  8240   0.533E-02    0.220E-01
RMM:  14    -0.414671922986E+03   -0.31387E-02   -0.19770E-04  8192   0.346E-02    0.125E-01
RMM:  15    -0.414673105194E+03   -0.11822E-02   -0.76446E-05  7994   0.219E-02    0.728E-02
RMM:  16    -0.414677411526E+03   -0.43063E-02   -0.10717E-04  7844   0.200E-02    0.118E-01
RMM:  17    -0.414680568815E+03   -0.31573E-02   -0.83189E-05  7418   0.187E-02    0.563E-02
RMM:  18    -0.414683089725E+03   -0.25209E-02   -0.55345E-05  6698   0.139E-02    0.739E-02
RMM:  19    -0.414686408830E+03   -0.33191E-02   -0.73504E-05  6803   0.139E-02    0.376E-02
RMM:  20    -0.414688304729E+03   -0.18959E-02   -0.42284E-05  6175   0.110E-02    0.541E-02
RMM:  21    -0.414691941961E+03   -0.36372E-02   -0.13259E-04  7237   0.138E-02    0.368E-02
RMM:  22    -0.414693162906E+03   -0.12209E-02   -0.34879E-05  5947   0.933E-03    0.348E-02
RMM:  23    -0.414695237285E+03   -0.20744E-02   -0.96687E-05  6754   0.107E-02    0.225E-02
RMM:  24    -0.414695544149E+03   -0.30686E-03   -0.14085E-05  4985   0.606E-03    0.176E-02
RMM:  25    -0.414695727327E+03   -0.18318E-03   -0.21564E-05  5442   0.492E-03    0.147E-02
RMM:  26    -0.414695710578E+03    0.16749E-04   -0.37899E-06  4828   0.335E-03    0.135E-02
RMM:  27    -0.414695699054E+03    0.11524E-04   -0.17706E-06  4515   0.226E-03    0.679E-03
RMM:  28    -0.414695707036E+03   -0.79823E-05   -0.47675E-07  3839   0.151E-03
   6 F= -.41469571E+03 E0= -.41470086E+03  d E =-.164003E+00  mag=   105.9603
       N       E                     dE             d eps       ncg     rms          rms(c)
DAV:   1    -0.414138121675E+03    0.55758E+00   -0.12999E+02  8238   0.169E+01    0.664E+00
RMM:   2    -0.415418363993E+03   -0.12802E+01   -0.26373E+00  8280   0.454E+00    0.130E+01
RMM:   3    -0.416560779102E+03   -0.11424E+01   -0.19419E+00  8281   0.348E+00    0.183E+01
RMM:   4    -0.416693022425E+03   -0.13224E+00   -0.80321E-01  8276   0.212E+00    0.183E+01
RMM:   5    -0.414783609356E+03    0.19094E+01   -0.47454E-01  8276   0.175E+00    0.373E+00
RMM:   6    -0.414731873134E+03    0.51736E-01   -0.88303E-02  8283   0.720E-01    0.141E+00
RMM:   7    -0.414725873738E+03    0.59994E-02   -0.17439E-02  8280   0.344E-01    0.141E+00
RMM:   8    -0.414720571992E+03    0.53017E-02   -0.13697E-02  8274   0.302E-01    0.118E+00
RMM:   9    -0.414715248668E+03    0.53233E-02   -0.15089E-02  8266   0.291E-01    0.146E+00
RMM:  10    -0.414704235446E+03    0.11013E-01   -0.11871E-02  8272   0.272E-01    0.545E-01
RMM:  11    -0.414707930053E+03   -0.36946E-02   -0.43752E-03  8267   0.161E-01    0.763E-01
RMM:  12    -0.414709811767E+03   -0.18817E-02   -0.19400E-03  8270   0.116E-01    0.283E-01
RMM:  13    -0.414712058657E+03   -0.22469E-02   -0.75296E-04  8259   0.675E-02    0.285E-01
RMM:  14    -0.414716744190E+03   -0.46855E-02   -0.32246E-04  8218   0.443E-02    0.149E-01
RMM:  15    -0.414718504585E+03   -0.17604E-02   -0.11433E-04  8180   0.267E-02    0.863E-02
RMM:  16    -0.414725306726E+03   -0.68021E-02   -0.15226E-04  8161   0.234E-02    0.139E-01
RMM:  17    -0.414730026981E+03   -0.47203E-02   -0.11298E-04  7819   0.216E-02    0.700E-02
RMM:  18    -0.414734119496E+03   -0.40925E-02   -0.78609E-05  7265   0.164E-02    0.894E-02
RMM:  19    -0.414739511525E+03   -0.53920E-02   -0.11061E-04  7151   0.160E-02    0.439E-02
RMM:  20    -0.414742372431E+03   -0.28609E-02   -0.59342E-05  6603   0.129E-02    0.633E-02
RMM:  21    -0.414747305053E+03   -0.49326E-02   -0.16887E-04  7402   0.154E-02    0.438E-02
RMM:  22    -0.414748973108E+03   -0.16681E-02   -0.51668E-05  6370   0.111E-02    0.403E-02
RMM:  23    -0.414751691097E+03   -0.27180E-02   -0.13369E-04  7169   0.128E-02    0.256E-02
RMM:  24    -0.414752163564E+03   -0.47247E-03   -0.20732E-05  5279   0.722E-03    0.195E-02
RMM:  25    -0.414752486057E+03   -0.32249E-03   -0.32963E-05  5776   0.605E-03    0.188E-02
RMM:  26    -0.414752472309E+03    0.13748E-04   -0.47309E-06  4827   0.374E-03    0.144E-02
RMM:  27    -0.414752465211E+03    0.70975E-05   -0.26098E-06  4681   0.250E-03
   7 F= -.41475247E+03 E0= -.41475694E+03  d E =-.220761E+00  mag=   106.0270
       N       E                     dE             d eps       ncg     rms          rms(c)
DAV:   1    -0.414486805824E+03    0.26567E+00   -0.77878E+01  8250   0.130E+01    0.485E+00
RMM:   2    -0.415210934129E+03   -0.72413E+00   -0.13991E+00  8281   0.331E+00    0.981E+00
RMM:   3    -0.415831660526E+03   -0.62073E+00   -0.10265E+00  8281   0.253E+00    0.137E+01
RMM:   4    -0.415910279130E+03   -0.78619E-01   -0.44750E-01  8272   0.158E+00    0.139E+01
RMM:   5    -0.414825453679E+03    0.10848E+01   -0.26451E-01  8279   0.131E+00    0.247E+00
RMM:   6    -0.414806099854E+03    0.19354E-01   -0.44412E-02  8284   0.512E-01    0.105E+00
RMM:   7    -0.414803071889E+03    0.30280E-02   -0.93814E-03  8284   0.248E-01    0.106E+00
RMM:   8    -0.414800154955E+03    0.29169E-02   -0.82774E-03  8270   0.233E-01    0.874E-01
RMM:   9    -0.414799034764E+03    0.11202E-02   -0.83291E-03  8267   0.217E-01    0.111E+00
RMM:  10    -0.414793689092E+03    0.53457E-02   -0.61664E-03  8275   0.197E-01    0.372E-01
RMM:  11    -0.414795943142E+03   -0.22540E-02   -0.22768E-03  8260   0.116E-01    0.532E-01
RMM:  12    -0.414796331429E+03   -0.38829E-03   -0.10232E-03  8254   0.848E-02    0.168E-01
RMM:  13    -0.414797171150E+03   -0.83972E-03   -0.28797E-04  8226   0.417E-02    0.165E-01
RMM:  14    -0.414798907097E+03   -0.17359E-02   -0.11241E-04  8091   0.262E-02    0.947E-02
RMM:  15    -0.414799568229E+03   -0.66113E-03   -0.48912E-05  7179   0.178E-02    0.602E-02
RMM:  16    -0.414802161152E+03   -0.25929E-02   -0.69324E-05  7264   0.163E-02    0.951E-02
RMM:  17    -0.414803778048E+03   -0.16169E-02   -0.48761E-05  6714   0.156E-02    0.465E-02
RMM:  18    -0.414804883601E+03   -0.11056E-02   -0.24787E-05  5332   0.104E-02    0.553E-02
RMM:  19    -0.414806712851E+03   -0.18293E-02   -0.39805E-05  6086   0.110E-02    0.303E-02
RMM:  20    -0.414807642081E+03   -0.92923E-03   -0.18221E-05  4985   0.810E-03    0.393E-02
RMM:  21    -0.414810193764E+03   -0.25517E-02   -0.86075E-05  6695   0.107E-02    0.314E-02
RMM:  22    -0.414811108406E+03   -0.91464E-03   -0.25005E-05  5504   0.792E-03    0.304E-02
RMM:  23    -0.414812620005E+03   -0.15116E-02   -0.69175E-05  6379   0.878E-03    0.144E-02
RMM:  24    -0.414812821776E+03   -0.20177E-03   -0.86383E-06  4801   0.491E-03    0.129E-02
RMM:  25    -0.414813004752E+03   -0.18298E-03   -0.15512E-05  5147   0.413E-03    0.112E-02
RMM:  26    -0.414813000005E+03    0.47468E-05   -0.29035E-06  4673   0.285E-03
   8 F= -.41481300E+03 E0= -.41481715E+03  d E =-.605348E-01  mag=   106.0792
       N       E                     dE             d eps       ncg     rms          rms(c)
DAV:   1    -0.414800517150E+03    0.12488E-01   -0.35486E+00  8427   0.276E+00    0.102E+00
RMM:   2    -0.414837527947E+03   -0.37011E-01   -0.57764E-02  8281   0.665E-01    0.226E+00
RMM:   3    -0.414878845569E+03   -0.41318E-01   -0.41854E-02  8281   0.504E-01    0.339E+00
RMM:   4    -0.414854947884E+03    0.23898E-01   -0.22566E-02  8270   0.352E-01    0.274E+00
RMM:   5    -0.414815244861E+03    0.39703E-01   -0.12744E-02  8281   0.296E-01    0.493E-01
RMM:   6    -0.414814396451E+03    0.84841E-03   -0.16230E-03  8284   0.992E-02    0.185E-01
RMM:   7    -0.414814212892E+03    0.18356E-03   -0.51103E-04  8232   0.547E-02    0.297E-01
RMM:   8    -0.414813659209E+03    0.55368E-03   -0.40406E-04  8239   0.514E-02    0.132E-01
RMM:   9    -0.414813692785E+03   -0.33576E-04   -0.40929E-04  8232   0.483E-02    0.249E-01
RMM:  10    -0.414813300953E+03    0.39183E-03   -0.27240E-04  8220   0.420E-02    0.634E-02
RMM:  11    -0.414813360539E+03   -0.59586E-04   -0.57460E-05  7538   0.183E-02    0.632E-02
RMM:  12    -0.414813453671E+03   -0.93132E-04   -0.16406E-05  4730   0.115E-02    0.265E-02
RMM:  13    -0.414813503979E+03   -0.50308E-04   -0.51100E-06  4515   0.620E-03    0.199E-02
RMM:  14    -0.414813693435E+03   -0.18946E-03   -0.46530E-06  4696   0.478E-03    0.213E-02
RMM:  15    -0.414813777273E+03   -0.83839E-04   -0.25834E-06  4575   0.416E-03    0.121E-02
RMM:  16    -0.414813968849E+03   -0.19158E-03   -0.33565E-06  4695   0.331E-03    0.183E-02
RMM:  17    -0.414814146350E+03   -0.17750E-03   -0.30088E-06  4658   0.365E-03    0.902E-03
RMM:  18    -0.414814267328E+03   -0.12098E-03   -0.14548E-06  4483   0.217E-03    0.102E-02
RMM:  19    -0.414814391088E+03   -0.12376E-03   -0.12204E-06  4400   0.218E-03    0.605E-03
RMM:  20    -0.414814597134E+03   -0.20605E-03   -0.26582E-06  4613   0.215E-03    0.967E-03
RMM:  21    -0.414814767449E+03   -0.17032E-03   -0.26646E-06  4549   0.234E-03    0.522E-03
RMM:  22    -0.414814911852E+03   -0.14440E-03   -0.30794E-06  4557   0.197E-03    0.709E-03
RMM:  23    -0.414814998469E+03   -0.86616E-04   -0.26732E-06  4445   0.201E-03    0.334E-03
RMM:  24    -0.414815030766E+03   -0.32297E-04   -0.15314E-06  3570   0.141E-03    0.369E-03
RMM:  25    -0.414815034395E+03   -0.36295E-05   -0.59749E-07  3098   0.119E-03
   9 F= -.41481503E+03 E0= -.41481913E+03  d E =-.625692E-01  mag=   106.0867
       N       E                     dE             d eps       ncg     rms          rms(c)
DAV:   1    -0.414786899618E+03    0.28131E-01   -0.11139E+01  8307   0.493E+00    0.178E+00
RMM:   2    -0.414900744474E+03   -0.11384E+00   -0.19601E-01  8272   0.128E+00    0.398E+00
RMM:   3    -0.415008202240E+03   -0.10746E+00   -0.12866E-01  8277   0.892E-01    0.561E+00
RMM:   4    -0.414941779542E+03    0.66423E-01   -0.64833E-02  8280   0.595E-01    0.464E+00
RMM:   5    -0.414831944647E+03    0.10983E+00   -0.35262E-02  8275   0.491E-01    0.831E-01
RMM:   6    -0.414829601170E+03    0.23435E-02   -0.49859E-03  8274   0.174E-01    0.333E-01
RMM:   7    -0.414829667790E+03   -0.66619E-04   -0.13956E-03  8281   0.915E-02    0.455E-01
RMM:   8    -0.414828740582E+03    0.92721E-03   -0.11961E-03  8273   0.887E-02    0.231E-01
RMM:   9    -0.414829138788E+03   -0.39821E-03   -0.11817E-03  8234   0.824E-02    0.454E-01
RMM:  10    -0.414828234653E+03    0.90413E-03   -0.77201E-04  8264   0.707E-02    0.142E-01
RMM:  11    -0.414828241540E+03   -0.68865E-05   -0.25209E-04  8224   0.382E-02    0.146E-01
RMM:  12    -0.414828190331E+03    0.51209E-04   -0.74960E-05  7774   0.228E-02    0.540E-02
RMM:  13    -0.414828200299E+03   -0.99689E-05   -0.21562E-05  4914   0.124E-02
  10 F= -.41482820E+03 E0= -.41483232E+03  d E =-.131659E-01  mag=   106.1003
       N       E                     dE             d eps       ncg     rms          rms(c)
DAV:   1    -0.414822440365E+03    0.57500E-02   -0.15752E+00  8331   0.185E+00    0.666E-01
RMM:   2    -0.414838543574E+03   -0.16103E-01   -0.27443E-02  8276   0.480E-01    0.150E+00
RMM:   3    -0.414853408649E+03   -0.14865E-01   -0.17905E-02  8280   0.333E-01    0.211E+00
RMM:   4    -0.414844430067E+03    0.89786E-02   -0.91322E-03  8276   0.223E-01    0.175E+00
RMM:   5    -0.414828813314E+03    0.15617E-01   -0.49707E-03  8275   0.185E-01    0.323E-01
RMM:   6    -0.414828411890E+03    0.40142E-03   -0.69044E-04  8258   0.650E-02    0.118E-01
RMM:   7    -0.414828472647E+03   -0.60757E-04   -0.23208E-04  8226   0.369E-02    0.194E-01
RMM:   8    -0.414828305758E+03    0.16689E-03   -0.17880E-04  8209   0.346E-02    0.792E-02
RMM:   9    -0.414828423050E+03   -0.11729E-03   -0.16733E-04  8218   0.313E-02    0.168E-01
RMM:  10    -0.414828367724E+03    0.55326E-04   -0.11023E-04  8131   0.266E-02    0.618E-02
RMM:  11    -0.414828381002E+03   -0.13278E-04   -0.25172E-05  5328   0.128E-02    0.319E-02
RMM:  12    -0.414828448684E+03   -0.67682E-04   -0.72409E-06  4529   0.760E-03    0.244E-02
RMM:  13    -0.414828476910E+03   -0.28226E-04   -0.32314E-06  4426   0.525E-03    0.113E-02
RMM:  14    -0.414828566780E+03   -0.89869E-04   -0.19688E-06  4565   0.321E-03    0.161E-02
RMM:  15    -0.414828639662E+03   -0.72882E-04   -0.16258E-06  4541   0.327E-03    0.825E-03
RMM:  16    -0.414828734631E+03   -0.94970E-04   -0.15725E-06  4596   0.242E-03    0.127E-02
RMM:  17    -0.414828846998E+03   -0.11237E-03   -0.18570E-06  4643   0.261E-03    0.612E-03
RMM:  18    -0.414828898206E+03   -0.51208E-04   -0.76751E-07  4237   0.166E-03    0.689E-03
RMM:  19    -0.414828993688E+03   -0.95482E-04   -0.12861E-06  4186   0.168E-03    0.492E-03
RMM:  20    -0.414829059601E+03   -0.65913E-04   -0.10391E-06  4280   0.159E-03    0.638E-03
RMM:  21    -0.414829178359E+03   -0.11876E-03   -0.32480E-06  4491   0.199E-03    0.400E-03
RMM:  22    -0.414829221773E+03   -0.43415E-04   -0.13184E-06  4184   0.157E-03    0.492E-03
RMM:  23    -0.414829267369E+03   -0.45596E-04   -0.20790E-06  3926   0.162E-03    0.198E-03
RMM:  24    -0.414829274820E+03   -0.74509E-05   -0.40074E-07  2780   0.115E-03
  11 F= -.41482927E+03 E0= -.41483339E+03  d E =-.142404E-01  mag=   106.1225
       N       E                     dE             d eps       ncg     rms          rms(c)
DAV:   1    -0.414828420505E+03    0.84686E-03   -0.30265E-01  8463   0.812E-01    0.292E-01
RMM:   2    -0.414831689883E+03   -0.32694E-02   -0.53198E-03  8265   0.211E-01    0.684E-01
RMM:   3    -0.414835098814E+03   -0.34089E-02   -0.33303E-03  8268   0.142E-01    0.984E-01
RMM:   4    -0.414832121130E+03    0.29777E-02   -0.18804E-03  8257   0.102E-01    0.722E-01
RMM:   5    -0.414829643976E+03    0.24772E-02   -0.94999E-04  8255   0.815E-02    0.148E-01
RMM:   6    -0.414829573810E+03    0.70166E-04   -0.13539E-04  8214   0.289E-02    0.521E-02
RMM:   7    -0.414829584771E+03   -0.10961E-04   -0.45426E-05  7095   0.164E-02    0.865E-02
RMM:   8    -0.414829544117E+03    0.40655E-04   -0.34949E-05  6250   0.165E-02    0.319E-02
RMM:   9    -0.414829553739E+03   -0.96225E-05   -0.31587E-05  6080   0.140E-02
  12 F= -.41482955E+03 E0= -.41483367E+03  d E =-.145193E-01  mag=   106.1202
       N       E                     dE             d eps       ncg     rms          rms(c)
DAV:   1    -0.414824026931E+03    0.55172E-02   -0.16503E+00  8382   0.188E+00    0.741E-01
RMM:   2    -0.414835282821E+03   -0.11256E-01   -0.25089E-02  8283   0.448E-01    0.111E+00
RMM:   3    -0.414845231444E+03   -0.99486E-02   -0.22771E-02  8279   0.377E-01    0.170E+00
RMM:   4    -0.414854472934E+03   -0.92415E-02   -0.83038E-03  8278   0.228E-01    0.200E+00
RMM:   5    -0.414831832370E+03    0.22641E-01   -0.35967E-03  8245   0.150E-01    0.284E-01
RMM:   6    -0.414831749425E+03    0.82945E-04   -0.62107E-04  8251   0.608E-02    0.129E-01
RMM:   7    -0.414831774034E+03   -0.24609E-04   -0.20874E-04  8222   0.352E-02    0.177E-01
RMM:   8    -0.414831663884E+03    0.11015E-03   -0.17641E-04  8211   0.337E-02    0.845E-02
RMM:   9    -0.414831758159E+03   -0.94275E-04   -0.17091E-04  8220   0.310E-02    0.168E-01
RMM:  10    -0.414831646647E+03    0.11151E-03   -0.10541E-04  8148   0.263E-02    0.422E-02
RMM:  11    -0.414831653372E+03   -0.67253E-05   -0.18902E-05  4911   0.110E-02
  13 F= -.41483165E+03 E0= -.41483579E+03  d E =-.209963E-02  mag=   106.1176
