 vasp.5.4.4.18Apr17-6-g9f103f2a35 (build Sep 06 2021 19:49:22) complex          
  
 executed on             LinuxIFC date 2022.01.03  17:10:21
 running on   72 total cores
 distrk:  each k-point on   72 cores,    1 groups
 distr:  one band on NCORES_PER_BAND=  24 cores,    3 groups


--------------------------------------------------------------------------------------------------------


 INCAR:
 POTCAR:    PAW_PBE Ni 02Aug2007                  
 POTCAR:    PAW_PBE Fe 06Sep2000                  

 ----------------------------------------------------------------------------- 
|                                                                             |
|           W    W    AA    RRRRR   N    N  II  N    N   GGGG   !!!           |
|           W    W   A  A   R    R  NN   N  II  NN   N  G    G  !!!           |
|           W    W  A    A  R    R  N N  N  II  N N  N  G       !!!           |
|           W WW W  AAAAAA  RRRRR   N  N N  II  N  N N  G  GGG   !            |
|           WW  WW  A    A  R   R   N   NN  II  N   NN  G    G                |
|           W    W  A    A  R    R  N    N  II  N    N   GGGG   !!!           |
|                                                                             |
|      For optimal performance we recommend to set                            |
|        NCORE= 4 - approx SQRT( number of cores)                             |
|      NCORE specifies how many cores store one orbital (NPAR=cpu/NCORE).     |
|      This setting can  greatly improve the performance of VASP for DFT.     |
|      The default,   NCORE=1            might be grossly inefficient         |
|      on modern multi-core architectures or massively parallel machines.     |
|      Do your own testing !!!!                                               |
|      Unfortunately you need to use the default for GW and RPA calculations. |
|      (for HF NCORE is supported but not extensively tested yet)             |
|                                                                             |
 ----------------------------------------------------------------------------- 

 POTCAR:    PAW_PBE Ni 02Aug2007                  
   VRHFIN =Ni:                                                                  
   LEXCH  = PE                                                                  
   EATOM  =  1077.6739 eV,   79.2068 Ry                                         
                                                                                
   TITEL  = PAW_PBE Ni 02Aug2007                                                
   LULTRA =        F    use ultrasoft PP ?                                      
   IUNSCR =        1    unscreen: 0-lin 1-nonlin 2-no                           
   RPACOR =    2.000    partial core radius                                     
   POMASS =   58.690; ZVAL   =   10.000    mass and valenz                      
   RCORE  =    2.300    outmost cutoff radius                                   
   RWIGS  =    2.430; RWIGS  =    1.286    wigner-seitz radius (au A)           
   ENMAX  =  269.532; ENMIN  =  202.149 eV                                      
   RCLOC  =    1.201    cutoff for local pot                                    
   LCOR   =        T    correct aug charges                                     
   LPAW   =        T    paw PP                                                  
   EAUG   =  544.565                                                            
   DEXC   =    0.000                                                            
   RMAX   =    2.357    core radius for proj-oper                               
   RAUG   =    1.300    factor for augmentation sphere                          
   RDEP   =    2.390    radius for radial grids                                 
   RDEPT  =    1.838    core radius for aug-charge                              
                                                                                
   Atomic configuration                                                         
    9 entries                                                                   
     n  l   j            E        occ.                                          
     1  0  0.50     -8206.4253   2.0000                                         
     2  0  0.50      -976.1748   2.0000                                         
     2  1  1.50      -839.0571   6.0000                                         
     3  0  0.50      -105.9991   2.0000                                         
     3  1  1.50       -66.4603   6.0000                                         
     3  2  2.50        -4.6458   9.0000                                         
     4  0  0.50        -4.4926   1.0000                                         
     4  1  1.50        -4.0817   0.0000                                         
     4  3  2.50        -1.3606   0.0000                                         
   Description                                                                  
     l       E           TYP  RCUT    TYP  RCUT                                 
     2     -4.6457903     23  2.300                                             
     2     -6.0063729     23  2.300                                             
     0     -4.4925590     23  2.300                                             
     0      5.0102601     23  2.300                                             
     1     -2.7211652     23  2.300                                             
     1     16.5183231     23  2.300                                             
  local pseudopotential read in
  partial core-charges read in
  partial kinetic energy density read in
  atomic valenz-charges read in
  non local Contribution for L=           2  read in
    real space projection operators read in
  non local Contribution for L=           2  read in
    real space projection operators read in
  non local Contribution for L=           0  read in
    real space projection operators read in
  non local Contribution for L=           0  read in
    real space projection operators read in
  non local Contribution for L=           1  read in
    real space projection operators read in
  non local Contribution for L=           1  read in
    real space projection operators read in
    PAW grid and wavefunctions read in
 
   number of l-projection  operators is LMAX  =           6
   number of lm-projection operators is LMMAX =          18
 
 POTCAR:    PAW_PBE Fe 06Sep2000                  
   VRHFIN =Fe:  d7 s1                                                           
   LEXCH  = PE                                                                  
   EATOM  =   594.3153 eV,   43.6809 Ry                                         
                                                                                
   TITEL  = PAW_PBE Fe 06Sep2000                                                
   LULTRA =        F    use ultrasoft PP ?                                      
   IUNSCR =        1    unscreen: 0-lin 1-nonlin 2-no                           
   RPACOR =    2.000    partial core radius                                     
   POMASS =   55.847; ZVAL   =    8.000    mass and valenz                      
   RCORE  =    2.300    outmost cutoff radius                                   
   RWIGS  =    2.460; RWIGS  =    1.302    wigner-seitz radius (au A)           
   ENMAX  =  267.882; ENMIN  =  200.911 eV                                      
   RCLOC  =    1.701    cutoff for local pot                                    
   LCOR   =        T    correct aug charges                                     
   LPAW   =        T    paw PP                                                  
   EAUG   =  511.368                                                            
   DEXC   =    0.000                                                            
   RMAX   =    2.356    core radius for proj-oper                               
   RAUG   =    1.300    factor for augmentation sphere                          
   RDEP   =    2.442    radius for radial grids                                 
   RDEPT  =    1.890    core radius for aug-charge                              
                                                                                
   Atomic configuration                                                         
    9 entries                                                                   
     n  l   j            E        occ.                                          
     1  0  0.50     -6993.8440   2.0000                                         
     2  0  0.50      -814.6047   2.0000                                         
     2  1  1.50      -693.3689   6.0000                                         
     3  0  0.50       -89.4732   2.0000                                         
     3  1  1.50       -55.6373   6.0000                                         
     3  2  2.50        -3.8151   7.0000                                         
     4  0  0.50        -4.2551   1.0000                                         
     4  1  1.50        -3.4015   0.0000                                         
     4  3  2.50        -1.3606   0.0000                                         
   Description                                                                  
     l       E           TYP  RCUT    TYP  RCUT                                 
     2     -3.8151135     23  2.300                                             
     2     -5.1756961     23  2.300                                             
     0     -4.2550963     23  2.300                                             
     0      7.2035603     23  2.300                                             
     1     -2.7211652     23  2.300                                             
     1     18.4316424     23  2.300                                             
  local pseudopotential read in
  partial core-charges read in
  partial kinetic energy density read in
  atomic valenz-charges read in
  non local Contribution for L=           2  read in
    real space projection operators read in
  non local Contribution for L=           2  read in
    real space projection operators read in
  non local Contribution for L=           0  read in
    real space projection operators read in
  non local Contribution for L=           0  read in
    real space projection operators read in
  non local Contribution for L=           1  read in
    real space projection operators read in
  non local Contribution for L=           1  read in
    real space projection operators read in
    PAW grid and wavefunctions read in
 
   number of l-projection  operators is LMAX  =           6
   number of lm-projection operators is LMMAX =          18
 
 Optimization of the real space projectors (new method)

 maximal supplied QI-value         = 16.25
 optimisation between [QCUT,QGAM] = [ 11.54, 23.24] = [ 37.28,151.24] Ry 
 Optimized for a Real-space Cutoff    1.45 Angstroem

   l    n(q)    QCUT    max X(q) W(low)/X(q) W(high)/X(q)  e(spline) 
   2      9    11.539    60.317    0.19E-03    0.47E-04    0.16E-06
   2      9    11.539    55.921    0.19E-03    0.48E-04    0.16E-06
   0     10    11.539    51.690    0.80E-04    0.50E-04    0.24E-06
   0     10    11.539    30.015    0.73E-04    0.45E-04    0.22E-06
   1     10    11.539    18.849    0.87E-04    0.16E-03    0.71E-07
   1     10    11.539    14.624    0.73E-04    0.13E-03    0.64E-07
 Optimization of the real space projectors (new method)

 maximal supplied QI-value         = 16.25
 optimisation between [QCUT,QGAM] = [ 11.54, 23.24] = [ 37.28,151.24] Ry 
 Optimized for a Real-space Cutoff    1.53 Angstroem

   l    n(q)    QCUT    max X(q) W(low)/X(q) W(high)/X(q)  e(spline) 
   2     10    11.539    80.901    0.11E-03    0.14E-03    0.21E-06
   2     10    11.539    75.754    0.11E-03    0.14E-03    0.22E-06
   0     11    11.539    58.752    0.52E-04    0.18E-04    0.33E-06
   0     11    11.539    30.679    0.44E-04    0.16E-04    0.30E-06
   1     10    11.539    17.977    0.53E-04    0.29E-04    0.13E-06
   1     10    11.539    13.559    0.44E-04    0.25E-04    0.11E-06
  PAW_PBE Ni 02Aug2007                  :
 energy of atom  1       EATOM=-1077.6739
 kinetic energy error for atom=    0.0030 (will be added to EATOM!!)
  PAW_PBE Fe 06Sep2000                  :
 energy of atom  2       EATOM= -594.3153
 kinetic energy error for atom=    0.0026 (will be added to EATOM!!)
 
 
 POSCAR: POSCAR                                  
  positions in direct lattice
  velocities in cartesian coordinates
 exchange correlation table for  LEXCH =        8
   RHO(1)=    0.500       N(1)  =     2000
   RHO(2)=  100.500       N(2)  =     4000
 


--------------------------------------------------------------------------------------------------------


 ion  position               nearest neighbor table
   1  0.999  0.001  0.191-  62 2.47  59 2.47  35 2.49  23 2.50  32 2.50   5 2.52  40 2.52  37 2.52
                             2 2.53   4 2.53  21 2.54  34 2.54
   2  0.248  0.999  0.192-   6 2.45  50 2.47  60 2.47  36 2.48  37 2.50  59 2.51   3 2.51  28 2.52
                             5 2.52  21 2.53   1 2.53   8 2.56
   3  0.499  0.002  0.192-  60 2.41  61 2.44  39 2.45  36 2.49  30 2.50  34 2.51   2 2.51   8 2.52
                            11 2.52   7 2.53  50 2.54  51 2.54
   4  0.998  0.251  0.192-  10 2.45  43 2.48  35 2.49  42 2.49  19 2.50  34 2.50  13 2.50   7 2.53
                             1 2.53  40 2.53   5 2.55  46 2.55
   5  0.249  0.249  0.191-   6 2.45  36 2.48  45 2.50  37 2.50  46 2.50  35 2.51   1 2.52  42 2.52
                             2 2.52  16 2.54   4 2.55  44 2.55
   6  0.328  0.165  0.285-  38 2.42   5 2.45   2 2.45  17 2.45  36 2.45   9 2.47  39 2.48  59 2.50
                            35 2.51  15 2.55  60 2.55  45 2.60
   7  0.749  0.253  0.193-  10 2.44  18 2.44  39 2.47  14 2.49  48 2.49  13 2.51  34 2.51   4 2.53
                             3 2.53  11 2.54  36 2.55  19 2.55
   8  0.418  0.084  0.094-  37 2.49  36 2.51  16 2.51   3 2.52  11 2.52  30 2.53  28 2.53  48 2.56
                             2 2.56
   9  0.418  0.085  0.378-  39 2.40  60 2.47   6 2.47  49 2.48  29 2.51  17 2.53  12 2.53  31 2.57
                            38 2.65
  10  0.832  0.168  0.285-  34 2.42  41 2.43  12 2.43   7 2.44   4 2.45  20 2.45  62 2.51  35 2.52
                            18 2.53  61 2.57  39 2.59  43 2.60
  11  0.668  0.085  0.096-  34 2.51  40 2.51  48 2.51   8 2.52   3 2.52  19 2.53  30 2.54  63 2.54
                             7 2.54
  12  0.667  0.081  0.377-  10 2.43  39 2.50  61 2.51  64 2.52  31 2.52   9 2.53  49 2.53  20 2.56
                            41 2.57
  13  0.999  0.499  0.193-  18 2.44  22 2.46  43 2.49  53 2.50   4 2.50  42 2.51   7 2.51  19 2.52
                            50 2.52  21 2.53  14 2.53  26 2.55
  14  0.748  0.499  0.192-  15 2.43  18 2.46  44 2.48   7 2.49  48 2.49  57 2.52  26 2.52  21 2.52
                            23 2.53  13 2.53  56 2.55  36 2.57
  15  0.579  0.417  0.283-  44 2.40  58 2.40  49 2.41  14 2.43  36 2.46  17 2.46  55 2.51  39 2.51
                            45 2.54   6 2.55  18 2.56  56 2.57
  16  0.420  0.333  0.094-  36 2.51   8 2.51  37 2.52  57 2.52  44 2.52  46 2.53  24 2.54  48 2.54
                             5 2.54
  17  0.415  0.334  0.377-   6 2.45  15 2.46  47 2.50  45 2.50  25 2.50   9 2.53  49 2.53  58 2.59
                            38 2.59
  18  0.834  0.419  0.286-  49 2.36  27 2.41  13 2.44   7 2.44  14 2.46  20 2.48  10 2.53  22 2.53
                            15 2.56  39 2.58  56 2.60  43 2.63
  19  0.919  0.335  0.096-  48 2.49   4 2.50  40 2.51  53 2.51  13 2.52  11 2.53  26 2.54  46 2.54
                             7 2.55
  20  0.921  0.334  0.378-  10 2.45  54 2.47  18 2.48  43 2.49  47 2.50  27 2.53  12 2.56  41 2.56
                            49 2.59
  21  0.998  0.749  0.193-  22 2.43  50 2.48  23 2.48  56 2.49  59 2.50  32 2.50  26 2.52  14 2.52
                             2 2.53  13 2.53   1 2.54  28 2.55
  22  0.084  0.670  0.285-  50 2.40  29 2.43  54 2.43  21 2.43  27 2.46  13 2.46  52 2.50  18 2.53
                            60 2.54  59 2.56  56 2.58  43 2.58
  23  0.753  0.752  0.192-  56 2.44  55 2.46  62 2.47  21 2.48  63 2.49   1 2.50  32 2.51  57 2.52
                            14 2.53  44 2.54  51 2.57  34 2.58
  24  0.417  0.584  0.096-  46 2.49  44 2.50  51 2.51  57 2.52  30 2.52  63 2.53  16 2.54  42 2.56
                            53 2.57
  25  0.417  0.582  0.376-  45 2.40  55 2.44  54 2.49  52 2.49  17 2.50  31 2.50  47 2.52  58 2.53
                            64 2.55
  26  0.916  0.585  0.095-  48 2.48  32 2.48  57 2.50  53 2.51  21 2.52  14 2.52  28 2.53  19 2.54
                            13 2.55
  27  0.915  0.581  0.377-  18 2.41  22 2.46  56 2.47  58 2.51  20 2.53  49 2.54  33 2.57  54 2.58
                            29 2.58
  28  0.167  0.835  0.095-  32 2.48  37 2.49  53 2.50   2 2.52  50 2.53   8 2.53  26 2.53  30 2.54
                            21 2.55
  29  0.170  0.837  0.376-  22 2.43  59 2.45  60 2.45   9 2.51  31 2.54  38 2.56  33 2.57  27 2.58
                            54 2.63
  30  0.417  0.833  0.097-  51 2.49   3 2.50  53 2.52  24 2.52   8 2.53  11 2.54  28 2.54  63 2.54
                            50 2.55
  31  0.418  0.831  0.377-  60 2.44  52 2.45  61 2.46  25 2.50  12 2.52  64 2.53  29 2.54  54 2.56
                             9 2.57
  32  0.920  0.833  0.095-  28 2.48  26 2.48   1 2.50  21 2.50  23 2.51  57 2.53  37 2.54  63 2.54
                            40 2.57
  33  0.915  0.836  0.379-  56 2.40  59 2.42  41 2.45  38 2.45  62 2.47  58 2.48  64 2.48  29 2.57
                            27 2.57
  34  0.749  0.005  0.193-  61 2.41  10 2.42  62 2.45   4 2.50  11 2.51   7 2.51   3 2.51  63 2.54
                             1 2.54  51 2.55  40 2.57  23 2.58
  35  0.079  0.164  0.287-  41 2.30  38 2.31  47 2.33  59 2.45  62 2.47   4 2.49   1 2.49   6 2.51
                            43 2.51   5 2.51  10 2.52  45 2.59
  36  0.493  0.245  0.192-  39 2.43   6 2.45  15 2.46   5 2.48   2 2.48   3 2.49   8 2.51  16 2.51
                            44 2.52   7 2.55  14 2.57  48 2.57
  37  0.171  0.083  0.095-  28 2.49   8 2.49   2 2.50   5 2.50  16 2.52   1 2.52  32 2.54  46 2.57
                            40 2.58
  38  0.154  0.082  0.374-  35 2.31  59 2.33  41 2.35   6 2.42  33 2.45  47 2.47  29 2.56  17 2.59
                             9 2.65
  39  0.575  0.167  0.285-  49 2.34   9 2.40  36 2.43   3 2.45  60 2.45   7 2.47   6 2.48  12 2.50
                            15 2.51  18 2.58  10 2.59  61 2.61
  40  0.917  0.086  0.094-  19 2.51  11 2.51   1 2.52  63 2.53   4 2.53  46 2.55  34 2.57  32 2.57
                            37 2.58
  41  0.921  0.080  0.373-  35 2.30  62 2.34  38 2.35  10 2.43  33 2.45  64 2.51  47 2.53  20 2.56
                            12 2.57
  42  0.246  0.497  0.194-  43 2.36  45 2.36  52 2.42   4 2.49  13 2.51  46 2.51   5 2.52  53 2.54
                            51 2.55  24 2.56  44 2.58  50 2.59
  43  0.095  0.420  0.285-  54 2.30  47 2.30  42 2.36  45 2.37  52 2.45   4 2.48  20 2.49  13 2.49
                            35 2.51  22 2.58  10 2.60  18 2.63
  44  0.503  0.500  0.191-  15 2.40  55 2.41  14 2.48  45 2.48  57 2.49  24 2.50  36 2.52  16 2.52
                            23 2.54   5 2.55  51 2.55  42 2.58
  45  0.331  0.424  0.284-  47 2.35  42 2.36  43 2.37  25 2.40  55 2.46  52 2.47  44 2.48   5 2.50
                            17 2.50  15 2.54  35 2.59   6 2.60
  46  0.171  0.337  0.096-  24 2.49   5 2.50  42 2.51  16 2.53  19 2.54   4 2.55  53 2.55  40 2.55
                            37 2.57
  47  0.168  0.333  0.371-  43 2.30  35 2.33  45 2.35  54 2.45  38 2.47  17 2.50  20 2.50  25 2.52
                            41 2.53
  48  0.673  0.336  0.096-  26 2.48  19 2.49  14 2.49   7 2.49  11 2.51  57 2.53  16 2.54   8 2.56
                            36 2.57
  49  0.663  0.330  0.372-  39 2.34  18 2.36  15 2.41   9 2.48  17 2.53  12 2.53  27 2.54  58 2.58
                            20 2.59
  50  0.245  0.753  0.193-  22 2.40  52 2.41  60 2.41   2 2.47  21 2.48  53 2.51  13 2.52  28 2.53
                             3 2.54  30 2.55  51 2.57  42 2.59
  51  0.498  0.750  0.193-  61 2.37  55 2.39  52 2.41  30 2.49  24 2.51  63 2.52   3 2.54  44 2.55
                            34 2.55  42 2.55  23 2.57  50 2.57
  52  0.331  0.669  0.283-  54 2.39  50 2.41  51 2.41  42 2.42  31 2.45  43 2.45  60 2.47  45 2.47
                            61 2.48  25 2.49  22 2.50  55 2.52
  53  0.165  0.586  0.097-  13 2.50  28 2.50  50 2.51  26 2.51  19 2.51  30 2.52  42 2.54  46 2.55
                            24 2.57
  54  0.167  0.575  0.372-  43 2.30  52 2.39  22 2.43  47 2.45  20 2.47  25 2.49  31 2.56  27 2.58
                            29 2.63
  55  0.578  0.665  0.282-  51 2.39  58 2.40  64 2.40  44 2.41  25 2.44  23 2.46  45 2.46  61 2.48
                            56 2.50  15 2.51  52 2.52  62 2.59
  56  0.831  0.675  0.287-  58 2.26  33 2.40  23 2.44  62 2.46  27 2.47  59 2.49  21 2.49  55 2.50
                            14 2.55  15 2.57  22 2.58  18 2.60
  57  0.668  0.584  0.095-  44 2.49  26 2.50  63 2.51  23 2.52  14 2.52  16 2.52  24 2.52  32 2.53
                            48 2.53
  58  0.671  0.590  0.371-  56 2.26  55 2.40  15 2.40  64 2.47  33 2.48  27 2.51  25 2.53  49 2.58
                            17 2.59
  59  0.078  0.920  0.287-  38 2.33  33 2.42  29 2.45  35 2.45  62 2.46   1 2.47  56 2.49   6 2.50
                            21 2.50   2 2.51  22 2.56  60 2.66
  60  0.339  0.918  0.284-   3 2.41  50 2.41  31 2.44  29 2.45  39 2.45  61 2.47   9 2.47   2 2.47
                            52 2.47  22 2.54   6 2.55  59 2.66
  61  0.580  0.911  0.282-  51 2.37  64 2.38  34 2.41   3 2.44  31 2.46  60 2.47  52 2.48  55 2.48
                            12 2.51  62 2.52  10 2.57  39 2.61
  62  0.834  0.920  0.285-  64 2.32  41 2.34  34 2.45  59 2.46  56 2.46  35 2.47  33 2.47   1 2.47
                            23 2.47  10 2.51  61 2.52  55 2.59
  63  0.668  0.834  0.097-  23 2.49  57 2.51  51 2.52  40 2.53  24 2.53  30 2.54  34 2.54  11 2.54
                            32 2.54
  64  0.669  0.834  0.371-  62 2.32  61 2.38  55 2.40  58 2.47  33 2.48  41 2.51  12 2.52  31 2.53
                            25 2.55
 

IMPORTANT INFORMATION: All symmetrisations will be switched off!
NOSYMM: (Re-)initialisation of all symmetry stuff for point group C_1.

 
 

Automatic generation of k-mesh.
 generate k-points for:    3    3    1
Space group operators:
 irot       det(A)        alpha          n_x          n_y          n_z        tau_x        tau_y        tau_z
    1     1.000000     0.000001     1.000000     0.000000     0.000000     0.000000     0.000000     0.000000
 
 Subroutine IBZKPT returns following result:
 ===========================================
 
 Found      5 irreducible k-points:
 
 Following reciprocal coordinates:
            Coordinates               Weight
  0.000000  0.000000  0.000000      1.000000
  0.333333  0.000000  0.000000      2.000000
  0.000000  0.333333  0.000000      2.000000
  0.333333  0.333333  0.000000      2.000000
 -0.333333  0.333333  0.000000      2.000000
 
 Following cartesian coordinates:
            Coordinates               Weight
  0.000000  0.000000  0.000000      1.000000
  0.033002  0.019054  0.000000      2.000000
  0.000000  0.038108  0.000000      2.000000
  0.033002  0.057162  0.000000      2.000000
 -0.033002  0.019054  0.000000      2.000000
 


--------------------------------------------------------------------------------------------------------




 Dimension of arrays:
   k-points           NKPTS =      5   k-points in BZ     NKDIM =      5   number of bands    NBANDS=    411
   number of dos      NEDOS =    301   number of ions     NIONS =     64
   non local maximal  LDIM  =      6   non local SUM 2l+1 LMDIM =     18
   total plane-waves  NPLWV = ******
   max r-space proj   IRMAX =   8292   max aug-charges    IRDMAX=  19623
   dimension x,y,z NGX =    80 NGY =   80 NGZ =  160
   dimension x,y,z NGXF=   160 NGYF=  160 NGZF=  320
   support grid    NGXF=   160 NGYF=  160 NGZF=  320
   ions per type =              33  31
   NGX,Y,Z   is equivalent  to a cutoff of  13.17, 13.17, 12.52 a.u.
   NGXF,Y,Z  is equivalent  to a cutoff of  26.34, 26.34, 25.03 a.u.

 SYSTEM =  SQS-NiFe                                
 POSCAR =  POSCAR                                  

 Startparameter for this run:
   NWRITE =      2    write-flag & timer
   PREC   = accura    normal or accurate (medium, high low for compatibility)
   ISTART =      0    job   : 0-new  1-cont  2-samecut
   ICHARG =      2    charge: 1-file 2-atom 10-const
   ISPIN  =      2    spin polarized calculation?
   LNONCOLLINEAR =      F non collinear calculations
   LSORBIT =      F    spin-orbit coupling
   INIWAV =      1    electr: 0-lowe 1-rand  2-diag
   LASPH  =      F    aspherical Exc in radial PAW
   METAGGA=      F    non-selfconsistent MetaGGA calc.

 Electronic Relaxation 1
   ENCUT  =  520.0 eV  38.22 Ry    6.18 a.u.  18.78 18.78 39.52*2*pi/ulx,y,z
   ENINI  =  520.0     initial cutoff
   ENAUG  =  544.6 eV  augmentation charge cutoff
   NELM   =    200;   NELMIN=  2; NELMDL= -5     # of ELM steps 
   EDIFF  = 0.1E-04   stopping-criterion for ELM
   LREAL  =      T    real-space projection
   NLSPLINE    = F    spline interpolate recip. space projectors
   LCOMPAT=      F    compatible to vasp.4.4
   GGA_COMPAT  = T    GGA compatible to vasp.4.4-vasp.4.6
   LMAXPAW     = -100 max onsite density
   LMAXMIX     =    2 max onsite mixed and CHGCAR
   VOSKOWN=      0    Vosko Wilk Nusair interpolation
   ROPT   =   -0.00025  -0.00025
 Ionic relaxation
   EDIFFG = -.5E-01   stopping-criterion for IOM
   NSW    =     99    number of steps for IOM
   NBLOCK =      1;   KBLOCK =     99    inner block; outer block 
   IBRION =      2    ionic relax: 0-MD 1-quasi-New 2-CG
   NFREE  =      1    steps in history (QN), initial steepest desc. (CG)
   ISIF   =      2    stress and relaxation
   IWAVPR =     11    prediction:  0-non 1-charg 2-wave 3-comb
   ISYM   =      0    0-nonsym 1-usesym 2-fastsym
   LCORR  =      T    Harris-Foulkes like correction to forces

   POTIM  = 0.5000    time-step for ionic-motion
   TEIN   =    0.0    initial temperature
   TEBEG  =    0.0;   TEEND  =   0.0 temperature during run
   SMASS  =  -3.00    Nose mass-parameter (am)
   estimated Nose-frequenzy (Omega)   =  0.10E-29 period in steps =****** mass=  -0.233E-26a.u.
   SCALEE = 1.0000    scale energy and forces
   NPACO  =    256;   APACO  = 16.0  distance and # of slots for P.C.
   PSTRESS=    0.0 pullay stress

  Mass of Ions in am
   POMASS =  58.69 55.85
  Ionic Valenz
   ZVAL   =  10.00  8.00
  Atomic Wigner-Seitz radii
   RWIGS  =  -1.00 -1.00
  virtual crystal weights 
   VCA    =   1.00  1.00
   NELECT =     578.0000    total number of electrons
   NUPDOWN=      -1.0000    fix difference up-down

 DOS related values:
   EMIN   =  10.00;   EMAX   =-10.00  energy-range for DOS
   EFERMI =   0.00
   ISMEAR =     1;   SIGMA  =   0.20  broadening in eV -4-tet -1-fermi 0-gaus

 Electronic relaxation 2 (details)
   IALGO  =     68    algorithm
   LDIAG  =      T    sub-space diagonalisation (order eigenvalues)
   LSUBROT=      F    optimize rotation matrix (better conditioning)
   TURBO    =      0    0=normal 1=particle mesh
   IRESTART =      0    0=no restart 2=restart with 2 vectors
   NREBOOT  =      0    no. of reboots
   NMIN     =      0    reboot dimension
   EREF     =   0.00    reference energy to select bands
   IMIX   =      4    mixing-type and parameters
     AMIX     =   0.40;   BMIX     =  1.00
     AMIX_MAG =   1.60;   BMIX_MAG =  1.00
     AMIN     =   0.10
     WC   =   100.;   INIMIX=   1;  MIXPRE=   1;  MAXMIX= -45

 Intra band minimization:
   WEIMIN = 0.0010     energy-eigenvalue tresh-hold
   EBREAK =  0.61E-08  absolut break condition
   DEPER  =   0.30     relativ break condition  

   TIME   =   0.40     timestep for ELM

  volume/ion in A,a.u.               =      29.34       197.99
  Fermi-wavevector in a.u.,A,eV,Ry     =   1.105364  2.088835 16.623995  1.221829
  Thomas-Fermi vector in A             =   2.241850
 
 Write flags
   LWAVE        =      F    write WAVECAR
   LDOWNSAMPLE  =      F    k-point downsampling of WAVECAR
   LCHARG       =      F    write CHGCAR
   LVTOT        =      F    write LOCPOT, total local potential
   LVHAR        =      F    write LOCPOT, Hartree potential only
   LELF         =      F    write electronic localiz. function (ELF)
   LORBIT       =     10    0 simple, 1 ext, 2 COOP (PROOUT), +10 PAW based schemes


 Dipole corrections
   LMONO  =      F    monopole corrections only (constant potential shift)
   LDIPOL =      T    correct potential (dipole corrections)
   IDIPOL =      3    1-x, 2-y, 3-z, 4-all directions 
   EPSILON=  1.0000000 bulk dielectric constant

 Exchange correlation treatment:
   GGA     =    --    GGA type
   LEXCH   =     8    internal setting for exchange type
   VOSKOWN=      0    Vosko Wilk Nusair interpolation
   LHFCALC =     F    Hartree Fock is set to
   LHFONE  =     F    Hartree Fock one center treatment
   AEXX    =    0.0000 exact exchange contribution

 Linear response parameters
   LEPSILON=     F    determine dielectric tensor
   LRPA    =     F    only Hartree local field effects (RPA)
   LNABLA  =     F    use nabla operator in PAW spheres
   LVEL    =     F    velocity operator in full k-point grid
   LINTERFAST=   F  fast interpolation
   KINTER  =     0    interpolate to denser k-point grid
   CSHIFT  =0.1000    complex shift for real part using Kramers Kronig
   OMEGAMAX=  -1.0    maximum frequency
   DEG_THRESHOLD= 0.2000000E-02 threshold for treating states as degnerate
   RTIME   =   -0.100 relaxation time in fs
  (WPLASMAI=    0.000 imaginary part of plasma frequency in eV, 0.658/RTIME)
   DFIELD  = 0.0000000 0.0000000 0.0000000 field for delta impulse in time
 
 Orbital magnetization related:
   ORBITALMAG=     F  switch on orbital magnetization
   LCHIMAG   =     F  perturbation theory with respect to B field
   DQ        =  0.001000  dq finite difference perturbation B field
   LLRAUG    =     F  two centre corrections for induced B field



--------------------------------------------------------------------------------------------------------


 conjugate gradient relaxation of ions
   using selective dynamics as specified on POSCAR
 charge density and potential will be updated during run
 spin polarized calculation
 RMM-DIIS sequential band-by-band and
  variant of blocked Davidson during initial phase
 perform sub-space diagonalisation
    before iterative eigenvector-optimisation
 modified Broyden-mixing scheme, WC =      100.0
 initial mixing is a Kerker type mixing with AMIX =  0.4000 and BMIX =      1.0000
 Hartree-type preconditioning will be used
 using additional bands          122
 real space projection scheme for non local part
 use partial core corrections
 calculate Harris-corrections to forces 
   (improved forces if not selfconsistent)
 use gradient corrections 
 use of overlap-Matrix (Vanderbilt PP)
 Methfessel and Paxton  Order N= 1 SIGMA  =   0.20


--------------------------------------------------------------------------------------------------------


  energy-cutoff  :      520.00
  volume of cell :     1877.74
      direct lattice vectors                 reciprocal lattice vectors
    10.100310000  0.000000000  0.000000000     0.099006862  0.057161638  0.000000000
    -5.050155000  8.747125050  0.000000000     0.000000000  0.114323277  0.000000000
     0.000000000  0.000000000 21.253798980     0.000000000  0.000000000  0.047050412

  length of vectors
    10.100310000 10.100310003 21.253798980     0.114323277  0.114323277  0.047050412


 
 k-points in units of 2pi/SCALE and weight: read from INCAR                         
   0.00000000  0.00000000  0.00000000       0.111
   0.03300229  0.01905388  0.00000000       0.222
   0.00000000  0.03810776  0.00000000       0.222
   0.03300229  0.05716164  0.00000000       0.222
  -0.03300229  0.01905388  0.00000000       0.222
 
 k-points in reciprocal lattice and weights: read from INCAR                         
   0.00000000  0.00000000  0.00000000       0.111
   0.33333333  0.00000000  0.00000000       0.222
   0.00000000  0.33333333  0.00000000       0.222
   0.33333333  0.33333333  0.00000000       0.222
  -0.33333333  0.33333333  0.00000000       0.222
 
 position of ions in fractional coordinates (direct lattice) 
   0.99904300  0.00064200  0.19052303
   0.24849100  0.99862800  0.19205463
   0.49902500  0.00192700  0.19180553
   0.99813900  0.25067400  0.19194230
   0.24921500  0.24886200  0.19118596
   0.32800052  0.16475966  0.28489186
   0.74893500  0.25278100  0.19317475
   0.41837500  0.08394000  0.09411799
   0.41821172  0.08533467  0.37775726
   0.83176771  0.16780499  0.28490938
   0.66797000  0.08472300  0.09569325
   0.66674798  0.08142193  0.37701018
   0.99908600  0.49910800  0.19304001
   0.74816900  0.49871100  0.19204590
   0.57945116  0.41724359  0.28311698
   0.41961000  0.33337100  0.09413982
   0.41513261  0.33386706  0.37690308
   0.83351854  0.41900218  0.28563928
   0.91855900  0.33501600  0.09568743
   0.92100622  0.33359621  0.37805862
   0.99765800  0.74896900  0.19256042
   0.08354721  0.67004792  0.28484300
   0.75346500  0.75172800  0.19162859
   0.41737300  0.58352400  0.09623425
   0.41722419  0.58238141  0.37604862
   0.91550800  0.58461900  0.09542872
   0.91513999  0.58120785  0.37731367
   0.16682900  0.83490800  0.09456674
   0.17013421  0.83674891  0.37600848
   0.41715300  0.83338800  0.09679270
   0.41806530  0.83067169  0.37668370
   0.91985100  0.83263700  0.09539845
   0.91535082  0.83558570  0.37899677
   0.74918200  0.00453800  0.19311305
   0.07920288  0.16381470  0.28657755
   0.49319000  0.24544000  0.19167806
   0.17139600  0.08339300  0.09535888
   0.15420564  0.08211589  0.37375677
   0.57477127  0.16664647  0.28486485
   0.91693100  0.08581500  0.09410082
   0.92079468  0.08006782  0.37316152
   0.24596400  0.49669300  0.19369944
   0.09468450  0.41999191  0.28537167
   0.50297300  0.49962100  0.19096333
   0.33117373  0.42423083  0.28374397
   0.17081400  0.33724200  0.09550526
   0.16774162  0.33319021  0.37132746
   0.67264700  0.33598100  0.09600347
   0.66307077  0.32999405  0.37179010
   0.24490500  0.75270000  0.19343637
   0.49840300  0.74988300  0.19260698
   0.33089162  0.66901407  0.28270618
   0.16470600  0.58627100  0.09733079
   0.16726617  0.57541199  0.37241728
   0.57804852  0.66454743  0.28201230
   0.83050249  0.67491551  0.28744104
   0.66762500  0.58426200  0.09519882
   0.67134417  0.58994742  0.37096333
   0.07753028  0.92039408  0.28670933
   0.33911321  0.91776239  0.28432732
   0.57979695  0.91105065  0.28222616
   0.83417567  0.92036673  0.28493612
   0.66841400  0.83351100  0.09659831
   0.66932878  0.83383394  0.37065121
 
 position of ions in cartesian coordinates  (Angst):
  10.08740180  0.00561565  4.04933818
  -2.53339006  8.73512399  4.08189050
   5.03057555  0.01685571  4.07659618
   8.81557077  2.19267682  4.07950306
   1.26035708  2.17682703  4.06342796
   2.48084513  1.44117331  6.05503432
   6.28789244  2.21110702  4.10569730
   3.80180719  0.73423368  2.00036484
   3.79311468  0.74643305  8.02877686
   7.55367050  1.46781127  6.05540661
   6.31883979  0.74108268  2.03384510
   6.32316794  0.71220779  8.01289857
   7.57050555  4.36576009  4.10283357
   5.03817098  4.36228748  4.08170495
   3.74549151  3.64968185  6.01731131
   2.55461586  2.91603783  2.00082881
   2.50688766  2.92037692  8.01062221
   6.30276972  3.66506443  6.07091981
   7.58584793  2.93042685  2.03372140
   7.61773574  2.91800776  8.03518184
   6.29424553  6.55132550  4.09264046
  -2.53999311  5.86099295  6.05399581
   3.81388716  6.57545882  4.07283553
   1.26871004  5.10415740  2.04534340
   1.27297732  5.09416302  7.99246179
   6.29449804  5.11373550  2.02822283
   6.30800788  5.08389774  8.01934886
  -2.53139019  7.30304468  2.00990248
  -2.50730348  7.31914738  7.99160861
   0.00463604  7.28974905  2.05721259
   0.02756838  7.26598911  8.00595955
   5.08583435  7.28317996  2.02757948
   5.02548968  7.30897265  8.05512125
   7.54405284  0.03969445  4.10438595
  -0.02731602  1.43290770  6.09086167
   3.74186185  2.14689437  4.07388696
   1.31000516  0.72944900  2.02673847
   1.14282678  0.71827793  7.94375131
   4.96377757  1.45767748  6.05446031
   8.82790830  0.75063454  1.99999991
   8.89595684  0.70036325  7.93109998
  -0.02406399  4.34463578  4.11684896
  -1.16468148  3.67372176  6.06523219
   2.55701973  4.37024736  4.05869623
   1.20252589  3.71080015  6.03063722
   0.02214998  2.94989795  2.02984960
   0.01158012  2.91445643  7.89211921
   5.09718709  2.93886782  2.04043845
   5.03069917  2.88649926  7.90195214
  -1.32763525  6.58396103  4.11125772
   1.24699942  6.55932037  4.09363004
  -0.03651681  5.85194977  6.00858040
  -1.29717776  5.12818575  2.06864905
  -1.21647960  5.03320062  7.91528199
   2.48240173  5.81287949  5.99383267
   4.97990469  5.90357040  6.10921411
   3.79260580  5.11061278  2.02333658
   3.80145827  5.16034388  7.88438005
  -3.86505292  8.05080207  6.09366253
  -1.20969376  8.02778241  6.04303561
   1.25518189  7.96907400  5.99837815
   3.77743825  8.05056287  6.05597509
   2.54182886  7.29082495  2.05308106
   2.54943754  7.29364975  7.87774639
 


--------------------------------------------------------------------------------------------------------


 k-point  1 :   0.0000 0.0000 0.0000  plane waves:   50641
 k-point  2 :   0.3333 0.0000 0.0000  plane waves:   50572
 k-point  3 :   0.0000 0.3333 0.0000  plane waves:   50572
 k-point  4 :   0.3333 0.3333 0.0000  plane waves:   50583
 k-point  5 :  -0.3333 0.3333 0.0000  plane waves:   50572

 maximum and minimum number of plane-waves per node :      2130     2087

 maximum number of plane-waves:     50641
 maximum index in each direction: 
   IXMAX=   19   IYMAX=   18   IZMAX=   39
   IXMIN=  -19   IYMIN=  -19   IZMIN=  -39


 real space projection operators:
  total allocation   :      65960.44 KBytes
  max/ min on nodes  :       3314.11       2406.38


 parallel 3D FFT for wavefunctions:
    minimum data exchange during FFTs selected (reduces bandwidth)
 parallel 3D FFT for charge:
    minimum data exchange during FFTs selected (reduces bandwidth)


 total amount of memory used by VASP MPI-rank0   113826. kBytes
=======================================================================

   base      :      30000. kBytes
   nonlr-proj:      13002. kBytes
   fftplans  :       6403. kBytes
   grid      :      16455. kBytes
   one-center:         93. kBytes
   wavefun   :      47873. kBytes
 
     INWAV:  cpu time    0.0000: real time    0.0001
 Broyden mixing: mesh for mixing (old mesh)
   NGX = 37   NGY = 37   NGZ = 79
  (NGX  =160   NGY  =160   NGZ  =320)
  gives a total of 108151 points

 initial charge density was supplied:
 charge density of overlapping atoms calculated
 number of electron     578.0000000 magnetization     126.0000000
 keeping initial charge density in first step


--------------------------------------------------------------------------------------------------------


 Maximum index for non-local projection operator          769
 Maximum index for augmentation-charges         1146 (set IRDMAX)


--------------------------------------------------------------------------------------------------------


 First call to EWALD:  gamma=   0.144
 Maximum number of real-space cells 4x 4x 2
 Maximum number of reciprocal cells 2x 2x 4

    FEWALD:  cpu time    0.0050: real time    0.0043


--------------------------------------- Iteration      1(   1)  ---------------------------------------


    POTLOK:  cpu time    0.2460: real time    0.2533
    SETDIJ:  cpu time    0.0180: real time    0.0202
     EDDAV:  cpu time   24.7122: real time   25.0799
       DOS:  cpu time    0.0050: real time    0.0053
    --------------------------------------------
      LOOP:  cpu time   24.9812: real time   25.3587

 eigenvalue-minimisations  :  8220
 total energy-change (2. order) : 0.4827904E+04  (-0.2441797E+05)
 number of electron     578.0000000 magnetization     126.0000000
 augmentation part      578.0000000 magnetization     126.0000000

 DIPCOR: dipole corrections for dipol
 direction  3 min pos   235,
 dipolmoment           0.000000      0.000000     -0.000067 electrons x Angstroem
 Tr[quadrupol]     -9751.533068

 energy correction for charged system         0.000000 eV
 dipol+quadrupol energy correction           -0.000000 eV
 added-field ion interaction          0.000380 eV  (added to PSCEN)


 Free energy of the ion-electron system (eV)
  ---------------------------------------------------
  alpha Z        PSCENC =      1342.42888431
  Ewald energy   TEWEN  =    197235.46755401
  -Hartree energ DENC   =   -250574.37653993
  -exchange      EXHF   =         0.00000000
  -V(xc)+E(xc)   XCENC  =      1188.32599469
  PAW double counting   =     48940.03200138   -51385.17740542
  entropy T*S    EENTRO =        -0.00061150
  eigenvalues    EBANDS =      4094.37036240
  atomic energy  EATOM  =     53986.83344209
  Solvation  Ediel_sol  =         0.00000000
  ---------------------------------------------------
  free energy    TOTEN  =      4827.90368203 eV

  energy without entropy =     4827.90429353  energy(sigma->0) =     4827.90388586


--------------------------------------------------------------------------------------------------------




--------------------------------------- Iteration      1(   2)  ---------------------------------------


     EDDAV:  cpu time   24.8562: real time   25.2849
       DOS:  cpu time    0.0070: real time    0.0066
    --------------------------------------------
      LOOP:  cpu time   24.8632: real time   25.2915

 eigenvalue-minimisations  :  8220
 total energy-change (2. order) :-0.4797062E+04  (-0.4484009E+04)
 number of electron     578.0000000 magnetization     126.0000000
 augmentation part      578.0000000 magnetization     126.0000000

 DIPCOR: dipole corrections for dipol
 direction  3 min pos   235,
 dipolmoment           0.000000      0.000000     -0.000067 electrons x Angstroem
 Tr[quadrupol]     -9751.533068

 energy correction for charged system         0.000000 eV
 dipol+quadrupol energy correction           -0.000000 eV
 added-field ion interaction          0.000380 eV  (added to PSCEN)


 Free energy of the ion-electron system (eV)
  ---------------------------------------------------
  alpha Z        PSCENC =      1342.42888431
  Ewald energy   TEWEN  =    197235.46755401
  -Hartree energ DENC   =   -250574.37653993
  -exchange      EXHF   =         0.00000000
  -V(xc)+E(xc)   XCENC  =      1188.32599469
  PAW double counting   =     48940.03200138   -51385.17740542
  entropy T*S    EENTRO =         0.01140744
  eigenvalues    EBANDS =      -702.70360951
  atomic energy  EATOM  =     53986.83344209
  Solvation  Ediel_sol  =         0.00000000
  ---------------------------------------------------
  free energy    TOTEN  =        30.84172907 eV

  energy without entropy =       30.83032162  energy(sigma->0) =       30.83792658


--------------------------------------------------------------------------------------------------------




--------------------------------------- Iteration      1(   3)  ---------------------------------------


     EDDAV:  cpu time   24.6103: real time   24.9694
       DOS:  cpu time    0.0070: real time    0.0072
    --------------------------------------------
      LOOP:  cpu time   24.6173: real time   24.9766

 eigenvalue-minimisations  :  8526
 total energy-change (2. order) :-0.4815093E+03  (-0.4152620E+03)
 number of electron     578.0000000 magnetization     126.0000000
 augmentation part      578.0000000 magnetization     126.0000000

 DIPCOR: dipole corrections for dipol
 direction  3 min pos   235,
 dipolmoment           0.000000      0.000000     -0.000067 electrons x Angstroem
 Tr[quadrupol]     -9751.533068

 energy correction for charged system         0.000000 eV
 dipol+quadrupol energy correction           -0.000000 eV
 added-field ion interaction          0.000380 eV  (added to PSCEN)


 Free energy of the ion-electron system (eV)
  ---------------------------------------------------
  alpha Z        PSCENC =      1342.42888431
  Ewald energy   TEWEN  =    197235.46755401
  -Hartree energ DENC   =   -250574.37653993
  -exchange      EXHF   =         0.00000000
  -V(xc)+E(xc)   XCENC  =      1188.32599469
  PAW double counting   =     48940.03200138   -51385.17740542
  entropy T*S    EENTRO =         0.07936164
  eigenvalues    EBANDS =     -1184.28086781
  atomic energy  EATOM  =     53986.83344209
  Solvation  Ediel_sol  =         0.00000000
  ---------------------------------------------------
  free energy    TOTEN  =      -450.66757504 eV

  energy without entropy =     -450.74693668  energy(sigma->0) =     -450.69402892


--------------------------------------------------------------------------------------------------------




--------------------------------------- Iteration      1(   4)  ---------------------------------------


     EDDAV:  cpu time   25.2312: real time   25.7072
       DOS:  cpu time    0.0080: real time    0.0074
    --------------------------------------------
      LOOP:  cpu time   25.2392: real time   25.7146

 eigenvalue-minimisations  :  8799
 total energy-change (2. order) :-0.2241202E+02  (-0.2175533E+02)
 number of electron     578.0000000 magnetization     126.0000000
 augmentation part      578.0000000 magnetization     126.0000000

 DIPCOR: dipole corrections for dipol
 direction  3 min pos   235,
 dipolmoment           0.000000      0.000000     -0.000067 electrons x Angstroem
 Tr[quadrupol]     -9751.533068

 energy correction for charged system         0.000000 eV
 dipol+quadrupol energy correction           -0.000000 eV
 added-field ion interaction          0.000380 eV  (added to PSCEN)


 Free energy of the ion-electron system (eV)
  ---------------------------------------------------
  alpha Z        PSCENC =      1342.42888431
  Ewald energy   TEWEN  =    197235.46755401
  -Hartree energ DENC   =   -250574.37653993
  -exchange      EXHF   =         0.00000000
  -V(xc)+E(xc)   XCENC  =      1188.32599469
  PAW double counting   =     48940.03200138   -51385.17740542
  entropy T*S    EENTRO =         0.08768275
  eigenvalues    EBANDS =     -1206.70120871
  atomic energy  EATOM  =     53986.83344209
  Solvation  Ediel_sol  =         0.00000000
  ---------------------------------------------------
  free energy    TOTEN  =      -473.07959483 eV

  energy without entropy =     -473.16727759  energy(sigma->0) =     -473.10882242


--------------------------------------------------------------------------------------------------------




--------------------------------------- Iteration      1(   5)  ---------------------------------------


     EDDAV:  cpu time   26.2050: real time   26.5832
       DOS:  cpu time    0.0080: real time    0.0078
    CHARGE:  cpu time    1.0118: real time    1.0205
    MIXING:  cpu time    0.0040: real time    0.0045
    --------------------------------------------
      LOOP:  cpu time   27.2289: real time   27.6160

 eigenvalue-minimisations  :  9294
 total energy-change (2. order) :-0.4407107E+00  (-0.4396830E+00)
 number of electron     578.0000052 magnetization     122.7773381
 augmentation part      299.2282155 magnetization      96.5094167

 DIPCOR: dipole corrections for dipol
 direction  3 min pos   235,
 dipolmoment           0.000000      0.000000     -0.000067 electrons x Angstroem
 Tr[quadrupol]     -9751.533068

 energy correction for charged system         0.000000 eV
 dipol+quadrupol energy correction           -0.000000 eV
 added-field ion interaction          0.000380 eV  (added to PSCEN)


 Broyden mixing:
  rms(total) = 0.86189E+01    rms(broyden)= 0.86187E+01
  rms(prec ) = 0.91855E+01
  weight for this iteration     100.00

 Free energy of the ion-electron system (eV)
  ---------------------------------------------------
  alpha Z        PSCENC =      1342.42888431
  Ewald energy   TEWEN  =    197235.46755401
  -Hartree energ DENC   =   -250574.37653993
  -exchange      EXHF   =         0.00000000
  -V(xc)+E(xc)   XCENC  =      1188.32599469
  PAW double counting   =     48940.03200138   -51385.17740542
  entropy T*S    EENTRO =         0.08792772
  eigenvalues    EBANDS =     -1207.14216436
  atomic energy  EATOM  =     53986.83344209
  Solvation  Ediel_sol  =         0.00000000
  ---------------------------------------------------
  free energy    TOTEN  =      -473.52030551 eV

  energy without entropy =     -473.60823323  energy(sigma->0) =     -473.54961475


--------------------------------------------------------------------------------------------------------




--------------------------------------- Iteration      1(   6)  ---------------------------------------


    POTLOK:  cpu time    0.2480: real time    0.2480
    SETDIJ:  cpu time    0.0190: real time    0.0192
    EDDIAG:  cpu time    3.5745: real time    3.5787
  RMM-DIIS:  cpu time   15.0367: real time   15.0680
    ORTHCH:  cpu time    0.6379: real time    0.6394
       DOS:  cpu time    0.0070: real time    0.0067
    CHARGE:  cpu time    1.0728: real time    1.0732
    MIXING:  cpu time    0.0050: real time    0.0046
    --------------------------------------------
      LOOP:  cpu time   20.6009: real time   20.6378

 eigenvalue-minimisations  :  8376
 total energy-change (2. order) :-0.3195229E+03  (-0.9421605E+02)
 number of electron     578.0000064 magnetization     121.1609745
 augmentation part      344.7449414 magnetization     104.9984070

 DIPCOR: dipole corrections for dipol
 direction  3 min pos   229,
 dipolmoment           0.000000      0.000000      3.122675 electrons x Angstroem
 Tr[quadrupol]     -9761.116823

 energy correction for charged system         0.000000 eV
 dipol+quadrupol energy correction           -0.469863 eV
 added-field ion interaction        -87.124520 eV  (added to PSCEN)


 Broyden mixing:
  rms(total) = 0.20167E+02    rms(broyden)= 0.20167E+02
  rms(prec ) = 0.24667E+02
  weight for this iteration     100.00

 eigenvalues of (default mixing * dielectric matrix)
  average eigenvalue GAMMA=   0.1814
  0.1814

 Free energy of the ion-electron system (eV)
  ---------------------------------------------------
  alpha Z        PSCENC =      1254.83412188
  Ewald energy   TEWEN  =    197235.46755401
  -Hartree energ DENC   =   -249683.52450641
  -exchange      EXHF   =         0.00000000
  -V(xc)+E(xc)   XCENC  =      1126.65162082
  PAW double counting   =     52415.75559375   -54647.46534056
  entropy T*S    EENTRO =        -0.02056122
  eigenvalues    EBANDS =     -2481.57517137
  atomic energy  EATOM  =     53986.83344209
  Solvation  Ediel_sol  =         0.00000000
  ---------------------------------------------------
  free energy    TOTEN  =      -793.04324702 eV

  energy without entropy =     -793.02268579  energy(sigma->0) =     -793.03639328


--------------------------------------------------------------------------------------------------------




--------------------------------------- Iteration      1(   7)  ---------------------------------------


    POTLOK:  cpu time    0.2440: real time    0.2447
    SETDIJ:  cpu time    0.0190: real time    0.0183
    EDDIAG:  cpu time    3.7004: real time    3.7405
  RMM-DIIS:  cpu time   14.8857: real time   14.9977
    ORTHCH:  cpu time    0.6389: real time    0.6397
       DOS:  cpu time    0.0070: real time    0.0071
    CHARGE:  cpu time    1.0608: real time    1.0615
    MIXING:  cpu time    0.0050: real time    0.0044
    --------------------------------------------
      LOOP:  cpu time   20.5609: real time   20.7138

 eigenvalue-minimisations  :  8247
 total energy-change (2. order) : 0.2375145E+03  (-0.2808807E+02)
 number of electron     578.0000057 magnetization     119.1186675
 augmentation part      344.1698226 magnetization     100.8089760

 DIPCOR: dipole corrections for dipol
 direction  3 min pos   237,
 dipolmoment           0.000000      0.000000     -1.980763 electrons x Angstroem
 Tr[quadrupol]     -9756.654104

 energy correction for charged system         0.000000 eV
 dipol+quadrupol energy correction           -0.189053 eV
 added-field ion interaction         -3.360767 eV  (added to PSCEN)


 Broyden mixing:
  rms(total) = 0.15622E+02    rms(broyden)= 0.15622E+02
  rms(prec ) = 0.20450E+02
  weight for this iteration     100.00

 eigenvalues of (default mixing * dielectric matrix)
  average eigenvalue GAMMA=   0.1850
  0.2510  0.1190

 Free energy of the ion-electron system (eV)
  ---------------------------------------------------
  alpha Z        PSCENC =      1338.87868496
  Ewald energy   TEWEN  =    197235.46755401
  -Hartree energ DENC   =   -249576.68856117
  -exchange      EXHF   =         0.00000000
  -V(xc)+E(xc)   XCENC  =      1129.34506717
  PAW double counting   =     53221.76657737   -55523.23606001
  entropy T*S    EENTRO =        -0.03035229
  eigenvalues    EBANDS =     -2367.86513726
  atomic energy  EATOM  =     53986.83344209
  Solvation  Ediel_sol  =         0.00000000
  ---------------------------------------------------
  free energy    TOTEN  =      -555.52878512 eV

  energy without entropy =     -555.49843283  energy(sigma->0) =     -555.51866769


--------------------------------------------------------------------------------------------------------




--------------------------------------- Iteration      1(   8)  ---------------------------------------


    POTLOK:  cpu time    0.2440: real time    0.2448
    SETDIJ:  cpu time    0.0190: real time    0.0184
    EDDIAG:  cpu time    3.6174: real time    3.6239
  RMM-DIIS:  cpu time   14.9047: real time   14.9295
    ORTHCH:  cpu time    0.6459: real time    0.6470
       DOS:  cpu time    0.0070: real time    0.0074
    CHARGE:  cpu time    1.0898: real time    1.0894
    MIXING:  cpu time    0.0040: real time    0.0045
    --------------------------------------------
      LOOP:  cpu time   20.5319: real time   20.5649

 eigenvalue-minimisations  :  8275
 total energy-change (2. order) :-0.2570257E+02  (-0.1185125E+02)
 number of electron     578.0000057 magnetization     117.1222778
 augmentation part      338.8475742 magnetization      98.8670437

 DIPCOR: dipole corrections for dipol
 direction  3 min pos   235,
 dipolmoment           0.000000      0.000000      1.832363 electrons x Angstroem
 Tr[quadrupol]     -9753.524790

 energy correction for charged system         0.000000 eV
 dipol+quadrupol energy correction           -0.161786 eV
 added-field ion interaction        -10.449276 eV  (added to PSCEN)


 Broyden mixing:
  rms(total) = 0.18609E+02    rms(broyden)= 0.18609E+02
  rms(prec ) = 0.25378E+02
  weight for this iteration     100.00

 eigenvalues of (default mixing * dielectric matrix)
  average eigenvalue GAMMA=   0.1842
  0.2418  0.2418  0.0689

 Free energy of the ion-electron system (eV)
  ---------------------------------------------------
  alpha Z        PSCENC =      1331.81744232
  Ewald energy   TEWEN  =    197235.46755401
  -Hartree energ DENC   =   -249593.65937619
  -exchange      EXHF   =         0.00000000
  -V(xc)+E(xc)   XCENC  =      1135.88009644
  PAW double counting   =     54095.37175462   -56456.23344176
  entropy T*S    EENTRO =         0.00961762
  eigenvalues    EBANDS =     -2316.71844416
  atomic energy  EATOM  =     53986.83344209
  Solvation  Ediel_sol  =         0.00000000
  ---------------------------------------------------
  free energy    TOTEN  =      -581.23135500 eV

  energy without entropy =     -581.24097262  energy(sigma->0) =     -581.23456088


--------------------------------------------------------------------------------------------------------




--------------------------------------- Iteration      1(   9)  ---------------------------------------


    POTLOK:  cpu time    0.2450: real time    0.2463
    SETDIJ:  cpu time    0.0180: real time    0.0185
    EDDIAG:  cpu time    3.6264: real time    3.6343
  RMM-DIIS:  cpu time   14.8107: real time   14.8393
    ORTHCH:  cpu time    0.6579: real time    0.6588
       DOS:  cpu time    0.0080: real time    0.0076
    CHARGE:  cpu time    1.0398: real time    1.0442
    MIXING:  cpu time    0.0050: real time    0.0047
    --------------------------------------------
      LOOP:  cpu time   20.4109: real time   20.4536

 eigenvalue-minimisations  :  8283
 total energy-change (2. order) : 0.1210066E+03  (-0.8698597E+01)
 number of electron     578.0000057 magnetization     114.7027090
 augmentation part      335.7802535 magnetization      89.3241597

 DIPCOR: dipole corrections for dipol
 direction  3 min pos   243,
 dipolmoment           0.000000      0.000000     -1.000895 electrons x Angstroem
 Tr[quadrupol]     -9758.163696

 energy correction for charged system         0.000000 eV
 dipol+quadrupol energy correction           -0.048272 eV
 added-field ion interaction        -23.916069 eV  (added to PSCEN)


 Broyden mixing:
  rms(total) = 0.12754E+02    rms(broyden)= 0.12753E+02
  rms(prec ) = 0.14847E+02
  weight for this iteration     100.00

 eigenvalues of (default mixing * dielectric matrix)
  average eigenvalue GAMMA=   0.2362
  0.3873  0.3873  0.1082  0.0619

 Free energy of the ion-electron system (eV)
  ---------------------------------------------------
  alpha Z        PSCENC =      1318.46416347
  Ewald energy   TEWEN  =    197235.46755401
  -Hartree energ DENC   =   -249770.57953811
  -exchange      EXHF   =         0.00000000
  -V(xc)+E(xc)   XCENC  =      1137.29900404
  PAW double counting   =     54723.83125102   -57114.43841411
  entropy T*S    EENTRO =        -0.01540716
  eigenvalues    EBANDS =     -1977.08682911
  atomic energy  EATOM  =     53986.83344209
  Solvation  Ediel_sol  =         0.00000000
  ---------------------------------------------------
  free energy    TOTEN  =      -460.22477386 eV

  energy without entropy =     -460.20936670  energy(sigma->0) =     -460.21963814


--------------------------------------------------------------------------------------------------------




--------------------------------------- Iteration      1(  10)  ---------------------------------------


    POTLOK:  cpu time    0.2450: real time    0.2450
    SETDIJ:  cpu time    0.0180: real time    0.0184
    EDDIAG:  cpu time    3.7924: real time    3.8185
  RMM-DIIS:  cpu time   14.8827: real time   14.9498
    ORTHCH:  cpu time    0.6929: real time    0.6955
       DOS:  cpu time    0.0080: real time    0.0076
    CHARGE:  cpu time    1.0368: real time    1.0456
    MIXING:  cpu time    0.0060: real time    0.0048
    --------------------------------------------
      LOOP:  cpu time   20.6819: real time   20.7853

 eigenvalue-minimisations  :  8235
 total energy-change (2. order) : 0.1067163E+02  (-0.1213004E+02)
 number of electron     578.0000063 magnetization     111.8183285
 augmentation part      333.4066669 magnetization      84.4697282

 DIPCOR: dipole corrections for dipol
 direction  3 min pos   231,
 dipolmoment           0.000000      0.000000      0.959487 electrons x Angstroem
 Tr[quadrupol]     -9762.732255

 energy correction for charged system         0.000000 eV
 dipol+quadrupol energy correction           -0.044360 eV
 added-field ion interaction        -19.670720 eV  (added to PSCEN)


 Broyden mixing:
  rms(total) = 0.10294E+02    rms(broyden)= 0.10294E+02
  rms(prec ) = 0.12561E+02
  weight for this iteration     100.00

 eigenvalues of (default mixing * dielectric matrix)
  average eigenvalue GAMMA=   0.3036
  0.6067  0.6067  0.1228  0.1228  0.0588

 Free energy of the ion-electron system (eV)
  ---------------------------------------------------
  alpha Z        PSCENC =      1322.71342444
  Ewald energy   TEWEN  =    197235.46755401
  -Hartree energ DENC   =   -249946.43252459
  -exchange      EXHF   =         0.00000000
  -V(xc)+E(xc)   XCENC  =      1143.12175364
  PAW double counting   =     55499.33929340   -57930.98407895
  entropy T*S    EENTRO =        -0.00872419
  eigenvalues    EBANDS =     -1759.60328150
  atomic energy  EATOM  =     53986.83344209
  Solvation  Ediel_sol  =         0.00000000
  ---------------------------------------------------
  free energy    TOTEN  =      -449.55314166 eV

  energy without entropy =     -449.54441746  energy(sigma->0) =     -449.55023359


--------------------------------------------------------------------------------------------------------




--------------------------------------- Iteration      1(  11)  ---------------------------------------


    POTLOK:  cpu time    0.2430: real time    0.2471
    SETDIJ:  cpu time    0.0190: real time    0.0187
    EDDIAG:  cpu time    3.6244: real time    3.6616
  RMM-DIIS:  cpu time   15.0957: real time   15.2042
    ORTHCH:  cpu time    0.6379: real time    0.6397
       DOS:  cpu time    0.0070: real time    0.0075
    CHARGE:  cpu time    1.0498: real time    1.0519
    MIXING:  cpu time    0.0050: real time    0.0050
    --------------------------------------------
      LOOP:  cpu time   20.6819: real time   20.8358

 eigenvalue-minimisations  :  8260
 total energy-change (2. order) : 0.1294245E+02  (-0.1113098E+02)
 number of electron     578.0000055 magnetization     109.6801188
 augmentation part      333.1218504 magnetization      82.2824603

 DIPCOR: dipole corrections for dipol
 direction  3 min pos   244,
 dipolmoment           0.000000      0.000000     -0.011652 electrons x Angstroem
 Tr[quadrupol]     -9765.456326

 energy correction for charged system         0.000000 eV
 dipol+quadrupol energy correction           -0.000007 eV
 added-field ion interaction         -0.321533 eV  (added to PSCEN)


 Broyden mixing:
  rms(total) = 0.10900E+02    rms(broyden)= 0.10900E+02
  rms(prec ) = 0.12326E+02
  weight for this iteration     100.00

 eigenvalues of (default mixing * dielectric matrix)
  average eigenvalue GAMMA=   0.3013
  0.6838  0.6838  0.1336  0.1336  0.1147  0.0580

 Free energy of the ion-electron system (eV)
  ---------------------------------------------------
  alpha Z        PSCENC =      1342.10696504
  Ewald energy   TEWEN  =    197235.46755401
  -Hartree energ DENC   =   -250099.06631976
  -exchange      EXHF   =         0.00000000
  -V(xc)+E(xc)   XCENC  =      1150.32588526
  PAW double counting   =     56265.91759404   -58747.73804139
  entropy T*S    EENTRO =         0.03852852
  eigenvalues    EBANDS =     -1570.49630247
  atomic energy  EATOM  =     53986.83344209
  Solvation  Ediel_sol  =         0.00000000
  ---------------------------------------------------
  free energy    TOTEN  =      -436.61069465 eV

  energy without entropy =     -436.64922317  energy(sigma->0) =     -436.62353749


--------------------------------------------------------------------------------------------------------




--------------------------------------- Iteration      1(  12)  ---------------------------------------


    POTLOK:  cpu time    0.2450: real time    0.2473
    SETDIJ:  cpu time    0.0190: real time    0.0186
    EDDIAG:  cpu time    3.7394: real time    3.7711
  RMM-DIIS:  cpu time   16.1665: real time   16.2958
    ORTHCH:  cpu time    0.6299: real time    0.6373
       DOS:  cpu time    0.0080: real time    0.0075
    CHARGE:  cpu time    1.0488: real time    1.0524
    MIXING:  cpu time    0.0060: real time    0.0054
    --------------------------------------------
      LOOP:  cpu time   21.8627: real time   22.0355

 eigenvalue-minimisations  :  8299
 total energy-change (2. order) : 0.6839991E+02  (-0.4617540E+01)
 number of electron     578.0000058 magnetization     108.3045025
 augmentation part      333.9902578 magnetization      78.1010931

 DIPCOR: dipole corrections for dipol
 direction  3 min pos   249,
 dipolmoment           0.000000      0.000000     -0.588122 electrons x Angstroem
 Tr[quadrupol]     -9764.416270

 energy correction for charged system         0.000000 eV
 dipol+quadrupol energy correction           -0.016667 eV
 added-field ion interaction        -27.108114 eV  (added to PSCEN)


 Broyden mixing:
  rms(total) = 0.64424E+01    rms(broyden)= 0.64421E+01
  rms(prec ) = 0.79667E+01
  weight for this iteration     100.00

 eigenvalues of (default mixing * dielectric matrix)
  average eigenvalue GAMMA=   0.2958
  0.6708  0.6708  0.2638  0.1491  0.1491  0.0585  0.1084

 Free energy of the ion-electron system (eV)
  ---------------------------------------------------
  alpha Z        PSCENC =      1315.30372333
  Ewald energy   TEWEN  =    197235.46755401
  -Hartree energ DENC   =   -250101.98359839
  -exchange      EXHF   =         0.00000000
  -V(xc)+E(xc)   XCENC  =      1157.24021174
  PAW double counting   =     56696.57271860   -59194.44439735
  entropy T*S    EENTRO =        -0.01084713
  eigenvalues    EBANDS =     -1463.18958698
  atomic energy  EATOM  =     53986.83344209
  Solvation  Ediel_sol  =         0.00000000
  ---------------------------------------------------
  free energy    TOTEN  =      -368.21078007 eV

  energy without entropy =     -368.19993294  energy(sigma->0) =     -368.20716436


--------------------------------------------------------------------------------------------------------




--------------------------------------- Iteration      1(  13)  ---------------------------------------


    POTLOK:  cpu time    0.2880: real time    0.2898
    SETDIJ:  cpu time    0.0190: real time    0.0185
    EDDIAG:  cpu time    3.7254: real time    3.7402
  RMM-DIIS:  cpu time   14.8807: real time   14.9179
    ORTHCH:  cpu time    0.6409: real time    0.6420
       DOS:  cpu time    0.0070: real time    0.0074
    CHARGE:  cpu time    1.0398: real time    1.0404
    MIXING:  cpu time    0.0060: real time    0.0051
    --------------------------------------------
      LOOP:  cpu time   20.6069: real time   20.6614

 eigenvalue-minimisations  :  8300
 total energy-change (2. order) :-0.1261136E+02  (-0.2824788E+01)
 number of electron     578.0000056 magnetization     107.1592859
 augmentation part      333.0610750 magnetization      78.4109743

 DIPCOR: dipole corrections for dipol
 direction  3 min pos   234,
 dipolmoment           0.000000      0.000000      0.035980 electrons x Angstroem
 Tr[quadrupol]     -9766.358796

 energy correction for charged system         0.000000 eV
 dipol+quadrupol energy correction           -0.000062 eV
 added-field ion interaction         -0.338291 eV  (added to PSCEN)


 Broyden mixing:
  rms(total) = 0.70439E+01    rms(broyden)= 0.70437E+01
  rms(prec ) = 0.79668E+01
  weight for this iteration     100.00

 eigenvalues of (default mixing * dielectric matrix)
  average eigenvalue GAMMA=   0.2896
  0.7632  0.4872  0.4872  0.0585  0.1444  0.1444  0.1361  0.0962

 Free energy of the ion-electron system (eV)
  ---------------------------------------------------
  alpha Z        PSCENC =      1342.09015107
  Ewald energy   TEWEN  =    197235.46755401
  -Hartree energ DENC   =   -250157.29657620
  -exchange      EXHF   =         0.00000000
  -V(xc)+E(xc)   XCENC  =      1154.50818834
  PAW double counting   =     57038.31024318   -59546.66447545
  entropy T*S    EENTRO =        -0.04296359
  eigenvalues    EBANDS =     -1434.02770087
  atomic energy  EATOM  =     53986.83344209
  Solvation  Ediel_sol  =         0.00000000
  ---------------------------------------------------
  free energy    TOTEN  =      -380.82213743 eV

  energy without entropy =     -380.77917384  energy(sigma->0) =     -380.80781623


--------------------------------------------------------------------------------------------------------




--------------------------------------- Iteration      1(  14)  ---------------------------------------


    POTLOK:  cpu time    0.2440: real time    0.2456
    SETDIJ:  cpu time    0.0190: real time    0.0185
    EDDIAG:  cpu time    3.5655: real time    3.5716
  RMM-DIIS:  cpu time   14.9587: real time   14.9857
    ORTHCH:  cpu time    0.6359: real time    0.6372
       DOS:  cpu time    0.0080: real time    0.0076
    CHARGE:  cpu time    1.0478: real time    1.0503
    MIXING:  cpu time    0.0110: real time    0.0095
    --------------------------------------------
      LOOP:  cpu time   20.4899: real time   20.5259

 eigenvalue-minimisations  :  8299
 total energy-change (2. order) : 0.9809802E+01  (-0.1579027E+01)
 number of electron     578.0000060 magnetization     106.4696164
 augmentation part      332.4587261 magnetization      77.4039256

 DIPCOR: dipole corrections for dipol
 direction  3 min pos   227,
 dipolmoment           0.000000      0.000000      0.315322 electrons x Angstroem
 Tr[quadrupol]     -9766.980622

 energy correction for charged system         0.000000 eV
 dipol+quadrupol energy correction           -0.004791 eV
 added-field ion interaction        -11.130854 eV  (added to PSCEN)


 Broyden mixing:
  rms(total) = 0.42251E+01    rms(broyden)= 0.42248E+01
  rms(prec ) = 0.47270E+01
  weight for this iteration     100.00

 eigenvalues of (default mixing * dielectric matrix)
  average eigenvalue GAMMA=   0.3065
  0.8967  0.5207  0.5207  0.2717  0.1470  0.1470  0.0585  0.1031  0.0934

 Free energy of the ion-electron system (eV)
  ---------------------------------------------------
  alpha Z        PSCENC =      1331.29285963
  Ewald energy   TEWEN  =    197235.46755401
  -Hartree energ DENC   =   -250201.49087563
  -exchange      EXHF   =         0.00000000
  -V(xc)+E(xc)   XCENC  =      1154.56913403
  PAW double counting   =     57326.82838646   -59845.45175252
  entropy T*S    EENTRO =        -0.03927028
  eigenvalues    EBANDS =     -1359.02181300
  atomic energy  EATOM  =     53986.83344209
  Solvation  Ediel_sol  =         0.00000000
  ---------------------------------------------------
  free energy    TOTEN  =      -371.01233522 eV

  energy without entropy =     -370.97306493  energy(sigma->0) =     -370.99924512


--------------------------------------------------------------------------------------------------------




--------------------------------------- Iteration      1(  15)  ---------------------------------------


    POTLOK:  cpu time    0.2440: real time    0.2457
    SETDIJ:  cpu time    0.0200: real time    0.0186
    EDDIAG:  cpu time    3.6045: real time    3.6076
  RMM-DIIS:  cpu time   14.9477: real time   15.0023
    ORTHCH:  cpu time    0.6469: real time    0.7011
       DOS:  cpu time    0.0080: real time    0.0076
    CHARGE:  cpu time    1.0428: real time    1.0458
    MIXING:  cpu time    0.0060: real time    0.0055
    --------------------------------------------
      LOOP:  cpu time   20.5199: real time   20.6342

 eigenvalue-minimisations  :  8299
 total energy-change (2. order) :-0.8218506E+00  (-0.1192283E+01)
 number of electron     578.0000056 magnetization     105.6198115
 augmentation part      332.5825471 magnetization      76.9396863

 DIPCOR: dipole corrections for dipol
 direction  3 min pos   241,
 dipolmoment           0.000000      0.000000     -0.337623 electrons x Angstroem
 Tr[quadrupol]     -9767.128584

 energy correction for charged system         0.000000 eV
 dipol+quadrupol energy correction           -0.005493 eV
 added-field ion interaction         -5.569218 eV  (added to PSCEN)


 Broyden mixing:
  rms(total) = 0.36927E+01    rms(broyden)= 0.36925E+01
  rms(prec ) = 0.41511E+01
  weight for this iteration     100.00

 eigenvalues of (default mixing * dielectric matrix)
  average eigenvalue GAMMA=   0.3302
  1.0285  0.6381  0.6381  0.3043  0.1503  0.1503  0.0585  0.1391  0.1061  0.0889

 Free energy of the ion-electron system (eV)
  ---------------------------------------------------
  alpha Z        PSCENC =      1336.85379393
  Ewald energy   TEWEN  =    197235.46755401
  -Hartree energ DENC   =   -250217.08818894
  -exchange      EXHF   =         0.00000000
  -V(xc)+E(xc)   XCENC  =      1154.06099297
  PAW double counting   =     57505.57566283   -60028.17875626
  entropy T*S    EENTRO =         0.00288405
  eigenvalues    EBANDS =     -1345.36157047
  atomic energy  EATOM  =     53986.83344209
  Solvation  Ediel_sol  =         0.00000000
  ---------------------------------------------------
  free energy    TOTEN  =      -371.83418579 eV

  energy without entropy =     -371.83706984  energy(sigma->0) =     -371.83514714


--------------------------------------------------------------------------------------------------------




--------------------------------------- Iteration      1(  16)  ---------------------------------------


    POTLOK:  cpu time    0.3040: real time    0.3052
    SETDIJ:  cpu time    0.0190: real time    0.0186
    EDDIAG:  cpu time    3.6564: real time    3.6601
  RMM-DIIS:  cpu time   14.8187: real time   14.8507
    ORTHCH:  cpu time    0.6519: real time    0.6547
       DOS:  cpu time    0.0080: real time    0.0079
    CHARGE:  cpu time    0.9998: real time    0.9999
    MIXING:  cpu time    0.0060: real time    0.0057
    --------------------------------------------
      LOOP:  cpu time   20.4639: real time   20.5027

 eigenvalue-minimisations  :  8295
 total energy-change (2. order) :-0.7342462E+01  (-0.7303439E+00)
 number of electron     578.0000057 magnetization     104.8889447
 augmentation part      331.6947531 magnetization      77.6069132

 DIPCOR: dipole corrections for dipol
 direction  3 min pos   231,
 dipolmoment           0.000000      0.000000      0.034072 electrons x Angstroem
 Tr[quadrupol]     -9768.234382

 energy correction for charged system         0.000000 eV
 dipol+quadrupol energy correction           -0.000056 eV
 added-field ion interaction         -0.698521 eV  (added to PSCEN)


 Broyden mixing:
  rms(total) = 0.46232E+01    rms(broyden)= 0.46231E+01
  rms(prec ) = 0.51871E+01
  weight for this iteration     100.00

 eigenvalues of (default mixing * dielectric matrix)
  average eigenvalue GAMMA=   0.3278
  1.0941  0.6843  0.6843  0.3095  0.0585  0.1347  0.1347  0.1645  0.1516  0.1028
  0.0868

 Free energy of the ion-electron system (eV)
  ---------------------------------------------------
  alpha Z        PSCENC =      1341.72992752
  Ewald energy   TEWEN  =    197235.46755401
  -Hartree energ DENC   =   -250260.49168871
  -exchange      EXHF   =         0.00000000
  -V(xc)+E(xc)   XCENC  =      1152.95396894
  PAW double counting   =     57755.11830141   -60283.44886450
  entropy T*S    EENTRO =        -0.01957699
  eigenvalues    EBANDS =     -1307.31971199
  atomic energy  EATOM  =     53986.83344209
  Solvation  Ediel_sol  =         0.00000000
  ---------------------------------------------------
  free energy    TOTEN  =      -379.17664820 eV

  energy without entropy =     -379.15707121  energy(sigma->0) =     -379.17012254


--------------------------------------------------------------------------------------------------------




--------------------------------------- Iteration      1(  17)  ---------------------------------------


    POTLOK:  cpu time    0.2450: real time    0.2459
    SETDIJ:  cpu time    0.0190: real time    0.0185
    EDDIAG:  cpu time    3.6584: real time    3.6631
  RMM-DIIS:  cpu time   14.8877: real time   14.9178
    ORTHCH:  cpu time    0.6889: real time    0.6922
       DOS:  cpu time    0.0080: real time    0.0078
    CHARGE:  cpu time    0.9729: real time    0.9744
    MIXING:  cpu time    0.0070: real time    0.0058
    --------------------------------------------
      LOOP:  cpu time   20.4869: real time   20.5255

 eigenvalue-minimisations  :  8294
 total energy-change (2. order) : 0.4142680E+00  (-0.7531642E+00)
 number of electron     578.0000060 magnetization     104.5965907
 augmentation part      332.5290416 magnetization      76.4659565

 DIPCOR: dipole corrections for dipol
 direction  3 min pos   242,
 dipolmoment           0.000000      0.000000     -0.399080 electrons x Angstroem
 Tr[quadrupol]     -9768.410805

 energy correction for charged system         0.000000 eV
 dipol+quadrupol energy correction           -0.007674 eV
 added-field ion interaction         -8.059424 eV  (added to PSCEN)


 Broyden mixing:
  rms(total) = 0.28113E+01    rms(broyden)= 0.28112E+01
  rms(prec ) = 0.32675E+01
  weight for this iteration     100.00

 eigenvalues of (default mixing * dielectric matrix)
  average eigenvalue GAMMA=   0.3369
  1.1373  0.7445  0.7445  0.3232  0.3232  0.1412  0.1412  0.1492  0.0585  0.1039
  0.0945  0.0818

 Free energy of the ion-electron system (eV)
  ---------------------------------------------------
  alpha Z        PSCENC =      1334.36140620
  Ewald energy   TEWEN  =    197235.46755401
  -Hartree energ DENC   =   -250272.39707963
  -exchange      EXHF   =         0.00000000
  -V(xc)+E(xc)   XCENC  =      1152.18873227
  PAW double counting   =     57947.76952492   -60477.69524263
  entropy T*S    EENTRO =         0.03884253
  eigenvalues    EBANDS =     -1285.32955995
  atomic energy  EATOM  =     53986.83344209
  Solvation  Ediel_sol  =         0.00000000
  ---------------------------------------------------
  free energy    TOTEN  =      -378.76238018 eV

  energy without entropy =     -378.80122271  energy(sigma->0) =     -378.77532769


--------------------------------------------------------------------------------------------------------




--------------------------------------- Iteration      1(  18)  ---------------------------------------


    POTLOK:  cpu time    0.2450: real time    0.2462
    SETDIJ:  cpu time    0.0200: real time    0.0191
    EDDIAG:  cpu time    3.6484: real time    3.6540
  RMM-DIIS:  cpu time   14.6798: real time   14.7809
    ORTHCH:  cpu time    0.7119: real time    0.7551
       DOS:  cpu time    0.0080: real time    0.0078
    CHARGE:  cpu time    1.0308: real time    1.0371
    MIXING:  cpu time    0.0080: real time    0.0076
    --------------------------------------------
      LOOP:  cpu time   20.3519: real time   20.5077

 eigenvalue-minimisations  :  8291
 total energy-change (2. order) :-0.4225559E+01  (-0.3777623E+00)
 number of electron     578.0000056 magnetization     104.1983068
 augmentation part      332.9121341 magnetization      76.6132045

 DIPCOR: dipole corrections for dipol
 direction  3 min pos   248,
 dipolmoment           0.000000      0.000000     -0.549752 electrons x Angstroem
 Tr[quadrupol]     -9768.483301

 energy correction for charged system         0.000000 eV
 dipol+quadrupol energy correction           -0.014563 eV
 added-field ion interaction        -23.305641 eV  (added to PSCEN)


 Broyden mixing:
  rms(total) = 0.27781E+01    rms(broyden)= 0.27780E+01
  rms(prec ) = 0.32343E+01
  weight for this iteration     100.00

 eigenvalues of (default mixing * dielectric matrix)
  average eigenvalue GAMMA=   0.3508
  1.1757  0.8609  0.8609  0.3706  0.3706  0.1607  0.1436  0.1436  0.0585  0.1100
  0.1094  0.1094  0.0863

 Free energy of the ion-electron system (eV)
  ---------------------------------------------------
  alpha Z        PSCENC =      1319.10830062
  Ewald energy   TEWEN  =    197235.46755401
  -Hartree energ DENC   =   -250283.13591087
  -exchange      EXHF   =         0.00000000
  -V(xc)+E(xc)   XCENC  =      1150.92967775
  PAW double counting   =     58093.54418908   -60625.18687357
  entropy T*S    EENTRO =         0.01403780
  eigenvalues    EBANDS =     -1260.56235597
  atomic energy  EATOM  =     53986.83344209
  Solvation  Ediel_sol  =         0.00000000
  ---------------------------------------------------
  free energy    TOTEN  =      -382.98793907 eV

[...]
   -.998E+02 -.310E+02 -.929E+03   0.100E+03 0.311E+02 0.928E+03   -.262E+00 -.123E+00 0.258E+00   -.772E-02 0.233E-01 -.693E-01
   0.152E+03 -.128E+02 0.840E+03   -.152E+03 0.127E+02 -.840E+03   0.505E+00 0.159E+00 -.575E+00   -.336E-01 0.229E-01 -.140E-01
   0.115E+02 -.864E+01 0.262E+04   -.115E+02 0.851E+01 -.262E+04   0.149E-01 0.207E+00 -.125E+01   0.159E-01 -.829E-02 0.130E-01
   0.962E+01 -.687E+00 -.265E+04   -.959E+01 0.649E+00 0.265E+04   -.427E-01 0.414E-01 0.113E+01   0.119E-01 0.117E-01 -.537E-01
   0.309E+01 0.268E+02 0.275E+04   -.321E+01 -.269E+02 -.275E+04   0.152E+00 0.200E+00 -.776E+00   -.249E-01 -.115E-01 0.105E-01
   0.216E+02 -.625E+01 -.273E+04   -.219E+02 0.623E+01 0.273E+04   0.252E+00 0.251E-01 0.791E+00   -.101E-01 0.135E-03 -.462E-01
   -.378E+02 0.152E+02 0.273E+04   0.380E+02 -.154E+02 -.273E+04   -.160E+00 0.155E-01 -.123E+01   0.121E-01 0.478E-01 0.138E-01
   0.915E+01 -.185E+02 -.269E+04   -.917E+01 0.187E+02 0.268E+04   0.307E-01 -.219E+00 0.119E+01   -.213E-01 0.198E-01 -.527E-01
   -.571E+02 0.762E+02 0.264E+04   0.572E+02 -.764E+02 -.264E+04   0.308E-02 0.235E+00 -.140E+01   0.331E-01 -.201E-03 0.242E-01
   -.520E+02 0.545E+02 -.267E+04   0.520E+02 -.547E+02 0.267E+04   -.429E-03 0.217E+00 0.156E+01   0.113E-01 0.143E-01 -.646E-01
   0.959E+02 -.478E+02 0.274E+04   -.963E+02 0.480E+02 -.274E+04   0.334E+00 -.209E+00 -.475E+00   -.448E-01 0.440E-01 0.180E-01
   0.891E+02 -.644E+02 -.265E+04   -.895E+02 0.646E+02 0.265E+04   0.325E+00 -.245E+00 0.961E+00   0.218E-03 0.177E-01 -.645E-01
   -.857E+01 0.872E+02 0.671E+03   0.858E+01 -.878E+02 -.671E+03   0.107E-01 0.513E+00 -.261E+00   0.190E-02 -.148E-01 -.117E-01
   0.604E+01 -.113E+02 -.767E+03   -.603E+01 0.112E+02 0.767E+03   -.619E-02 0.107E+00 -.469E+00   0.902E-02 -.228E-01 -.677E-01
   0.107E+02 -.376E+02 0.717E+03   -.107E+02 0.378E+02 -.717E+03   -.979E-01 -.158E+00 -.281E+00   -.520E-02 -.501E-02 -.356E-01
   0.638E+02 -.475E+02 0.219E+04   -.641E+02 0.479E+02 -.219E+04   0.357E+00 -.367E+00 -.233E+01   -.426E-02 0.296E-01 0.185E-01
   0.840E+02 -.237E+02 -.214E+04   -.846E+02 0.241E+02 0.214E+04   0.587E+00 -.373E+00 0.234E+01   -.430E-02 -.129E-01 -.464E-01
   0.142E+02 0.573E+02 -.732E+03   -.142E+02 -.575E+02 0.732E+03   -.319E-01 0.155E+00 0.565E-01   0.505E-02 -.349E-02 -.745E-01
   -.176E+02 0.135E+02 0.219E+04   0.178E+02 -.134E+02 -.218E+04   -.178E+00 -.956E-01 -.280E+01   0.105E-01 -.995E-02 0.160E-01
   -.599E+02 0.261E+02 -.215E+04   0.605E+02 -.259E+02 0.214E+04   -.560E+00 -.167E+00 0.250E+01   0.103E-01 -.128E-01 -.494E-01
   -.599E+02 -.580E+02 0.644E+03   0.598E+02 0.585E+02 -.644E+03   0.928E-01 -.415E+00 -.456E+00   0.224E-01 -.165E-02 -.350E-01
   -.150E+03 -.159E+02 -.772E+03   0.151E+03 0.162E+02 0.772E+03   -.846E+00 -.250E+00 -.365E-01   0.404E-02 -.196E-01 -.602E-01
   0.771E+02 -.506E+02 0.691E+03   -.772E+02 0.507E+02 -.691E+03   0.121E+00 -.993E-01 -.516E+00   -.108E-02 -.128E-02 -.359E-01
   0.784E+02 -.616E+02 -.709E+03   -.789E+02 0.619E+02 0.708E+03   0.486E+00 -.250E+00 0.463E+00   -.155E-03 -.123E-01 -.814E-01
   0.188E+01 -.699E+01 0.216E+04   -.185E+01 0.674E+01 -.216E+04   -.323E-01 0.136E+00 -.280E+01   0.302E-01 -.125E-01 0.820E-02
   0.545E+01 0.185E+02 -.214E+04   -.557E+01 -.190E+02 0.214E+04   0.119E+00 0.548E+00 0.297E+01   -.349E-02 -.241E-01 -.368E-01
   0.436E+02 -.591E+01 0.218E+04   -.438E+02 0.591E+01 -.218E+04   0.138E+00 -.202E+00 -.256E+01   -.353E-01 -.258E-01 0.228E-01
   0.313E+02 -.582E+01 -.223E+04   -.313E+02 0.588E+01 0.222E+04   0.144E-01 -.762E-01 0.310E+01   0.636E-02 0.190E-02 -.248E-01
   -.121E+03 0.447E+02 0.649E+03   0.121E+03 -.450E+02 -.649E+03   -.373E+00 0.303E+00 -.355E+00   0.248E-01 0.173E-01 -.678E-02
   -.767E+01 0.386E+02 0.629E+03   0.773E+01 -.386E+02 -.629E+03   -.541E-01 -.616E-01 -.670E+00   0.173E-01 0.124E-01 -.188E-01
   -.589E+02 0.214E+02 -.718E+03   0.588E+02 -.215E+02 0.717E+03   0.157E+00 0.326E-01 0.745E+00   0.156E-01 0.236E-01 -.862E-01
   -.769E+02 0.205E+02 0.213E+04   0.773E+02 -.206E+02 -.212E+04   -.288E+00 0.195E+00 -.276E+01   0.449E-01 -.691E-02 0.637E-02
   -.618E+02 0.404E+02 -.218E+04   0.622E+02 -.406E+02 0.217E+04   -.349E+00 0.237E+00 0.337E+01   -.115E-01 0.124E-02 -.314E-01
   0.524E+02 -.357E+02 -.733E+03   -.524E+02 0.360E+02 0.733E+03   -.258E-01 -.304E+00 0.825E-01   0.430E-02 0.351E-01 -.777E-01
   0.956E+02 -.728E+02 -.758E+03   -.960E+02 0.731E+02 0.759E+03   0.393E+00 -.365E+00 0.375E-01   -.157E-01 0.169E-01 -.624E-01
   0.572E+02 -.403E+01 0.217E+04   -.574E+02 0.396E+01 -.217E+04   0.216E+00 0.110E+00 -.282E+01   -.391E-01 -.490E-02 0.130E-01
   0.315E+02 -.334E+02 -.218E+04   -.315E+02 0.336E+02 0.218E+04   0.406E-01 -.203E+00 0.311E+01   0.111E-01 0.942E-02 -.366E-01
   0.566E+02 -.402E+02 -.741E+03   -.570E+02 0.404E+02 0.741E+03   0.390E+00 -.200E+00 0.213E+00   -.137E-01 0.210E-01 -.558E-01
   -.536E+02 0.361E+02 -.721E+03   0.540E+02 -.362E+02 0.721E+03   -.450E+00 0.171E+00 0.269E+00   -.226E-02 0.667E-02 -.751E-01
   -.397E+02 0.883E+02 -.720E+03   0.400E+02 -.889E+02 0.720E+03   -.267E+00 0.548E+00 0.441E+00   0.172E-01 -.419E-02 -.817E-01
   0.372E+02 0.134E+02 -.768E+03   -.374E+02 -.133E+02 0.768E+03   0.227E+00 -.343E-01 -.757E-02   -.397E-02 -.986E-04 -.757E-01
   0.396E+01 0.576E+01 0.212E+04   -.392E+01 -.572E+01 -.212E+04   -.233E+00 0.385E-01 -.281E+01   -.109E-02 -.142E-02 0.234E-01
   -.400E+02 0.217E+01 -.215E+04   0.402E+02 -.225E+01 0.214E+04   -.243E+00 0.870E-01 0.353E+01   0.912E-02 0.656E-02 -.591E-01
 -----------------------------------------------------------------------------------------------
   0.331E+00 0.506E+00 0.275E+01   -.220E-12 0.216E-12 -.409E-11   -.301E+00 -.514E+00 -.709E+00   -.325E-01 0.547E-02 -.204E+01
 
 
 POSITION                                       TOTAL-FORCE (eV/Angst)
 -----------------------------------------------------------------------------------
     10.08740      0.00562      4.04934        -0.011535      0.019905     -0.161814
     -2.53339      8.73512      4.08189        -0.014020      0.075927     -0.112198
      5.03058      0.01686      4.07660         0.023557     -0.032675     -0.086045
      8.81557      2.19268      4.07950         0.007676     -0.022096     -0.149544
      1.26036      2.17683      4.06343        -0.084077     -0.041320     -0.094088
      2.54706      1.44218      6.11960        -0.006033     -0.007180     -0.005679
      6.28789      2.21111      4.10570         0.031019     -0.036281     -0.266101
      3.80181      0.73423      2.00036         0.101156      0.024014      0.376813
      3.79655      0.72873      8.13755        -0.005128      0.006440     -0.001855
      7.58008      1.45800      6.17103        -0.008181     -0.001134     -0.000745
      6.31884      0.74108      2.03385        -0.022588     -0.094919      0.403124
      6.31117      0.73873      8.17245        -0.008566      0.012948     -0.003099
      7.57051      4.36576      4.10283         0.004975      0.027155     -0.186686
      5.03817      4.36229      4.08170        -0.027670     -0.033750     -0.177860
      3.82160      3.62114      6.14095        -0.021261      0.003824     -0.013477
      2.55462      2.91604      2.00083         0.042192      0.094043      0.332518
      2.53933      2.90549      8.12252         0.012000      0.004430      0.007917
      6.29457      3.62032      6.16891         0.019715      0.002753     -0.001864
      7.58585      2.93043      2.03372         0.110752      0.032986      0.435648
      7.58514      2.93578      8.15380        -0.004652      0.008389     -0.004232
      6.29425      6.55133      4.09264         0.069294     -0.004196     -0.194005
     -2.53557      5.80714      6.14962         0.003330      0.009219     -0.004674
      3.81389      6.57546      4.07284        -0.042044      0.065655     -0.097293
      1.26871      5.10416      2.04534        -0.047629      0.064736      0.179986
      1.25217      5.08490      8.20048         0.001373      0.015328      0.010778
      6.29450      5.11374      2.02822         0.011614      0.110548      0.337854
      6.25940      5.11501      8.15324        -0.003910      0.001927      0.002102
     -2.53139      7.30304      2.00990         0.015592     -0.140375      0.329591
     -2.56535      7.31674      8.14730        -0.007319     -0.005644      0.000853
      0.00464      7.28975      2.05721         0.045561      0.070338      0.273271
     -0.03379      7.31022      8.20023        -0.001579      0.007860      0.007965
      5.08583      7.28318      2.02758        -0.120865      0.065040      0.309724
      5.05076      7.28561      8.15439        -0.001134     -0.002880      0.010195
      7.54405      0.03969      4.10439         0.025288     -0.083902     -0.279210
      0.00600      1.47599      6.07986         0.011676      0.000300     -0.005845
      3.74186      2.14689      4.07389        -0.034945      0.014054     -0.426005
      1.31001      0.72945      2.02674         0.015637     -0.003860      0.145029
      1.27684      0.74155      8.15238        -0.010477      0.000201     -0.011740
      5.08065      1.48167      6.14572         0.003367     -0.014483     -0.006567
      8.82791      0.75063      2.00000         0.020239     -0.030773      0.067075
      8.81862      0.75361      8.17381        -0.015334      0.004212     -0.007209
     -0.02406      4.34464      4.11685        -0.030444     -0.008601     -0.269931
     -1.32758      3.64011      6.16739         0.009081      0.009965     -0.010006
      2.55702      4.37025      4.05870        -0.030251      0.017074     -0.175803
      1.33600      3.63395      6.14624        -0.015788     -0.001247     -0.004798
      0.02215      2.94990      2.02985         0.022064     -0.131120     -0.015274
      0.01525      2.92320      8.22238         0.002919      0.019689     -0.015159
      5.09719      2.93887      2.04044        -0.031336     -0.228964     -0.028336
      5.07366      2.93206      8.22966         0.004705     -0.013291     -0.035681
     -1.32764      6.58396      4.11126        -0.004435     -0.027824     -0.258490
      1.24700      6.55932      4.09363         0.031921     -0.000301     -0.158379
      0.01004      5.80202      6.21762         0.007793     -0.007904      0.007704
     -1.29718      5.12819      2.06865         0.100526      0.078700      0.022063
     -1.31160      5.15211      8.23013         0.001074      0.000700     -0.000012
      2.56240      5.84334      6.17741        -0.002968      0.000502      0.002602
      5.06485      5.75637      6.13403        -0.002139      0.001407      0.003946
      3.79261      5.11061      2.02334         0.041101      0.033766     -0.059774
      3.75172      5.11535      8.24294        -0.000996      0.009621     -0.008855
     -3.78286      7.98916      6.09209        -0.000234      0.005444     -0.004272
     -1.26199      8.00138      6.18123         0.009104     -0.008139      0.006176
      1.24553      8.03477      6.18742         0.007920     -0.022959      0.023371
      3.79785      8.00874      6.15175        -0.000851     -0.009726      0.006271
      2.54183      7.29082      2.05308        -0.193088      0.082739     -0.001409
      2.47444      7.27883      8.25009        -0.002744      0.013704      0.041441
 -----------------------------------------------------------------------------------
    total drift:                               -0.002131     -0.001903      0.007733


--------------------------------------------------------------------------------------------------------



  FREE ENERGIE OF THE ION-ELECTRON SYSTEM (eV)
  ---------------------------------------------------
  free  energy   TOTEN  =      -414.83165337 eV

  energy  without entropy=     -414.84405145  energy(sigma->0) =     -414.83578607
 
 d Force = 0.2211424E-02[ 0.102E-02, 0.340E-02]  d Energy = 0.2099633E-02 0.112E-03
 d Force = 0.4910278E+02[ 0.491E+02, 0.491E+02]  d Ewald  = 0.4910277E+02 0.390E-05


--------------------------------------------------------------------------------------------------------


    POTLOK:  cpu time    0.2660: real time    0.2666


--------------------------------------------------------------------------------------------------------


 Conjugate gradient step on ions:
 trial-energy change:   -0.002100  1 .order   -0.002211   -0.003402   -0.001021
  (g-gl).g = 0.186E-02      g.g   = 0.165E-02  gl.gl    = 0.119E-01
 g(Force)  = 0.165E-02   g(Stress)= 0.000E+00 ortho     =-0.150E-03
 gamma     =   0.15533
 trial     =   2.09543
 opt step  =   4.09511  (harmonic =   2.99409) maximal distance =0.01407536
 next E    =  -414.832043   (d E  =  -0.00249)


--------------------------------------------------------------------------------------------------------


  
 reached required accuracy - stopping structural energy minimisation
     LOOP+:  cpu time  249.0151: real time  250.2376
    4ORBIT:  cpu time    0.0000: real time    0.0000
 


 total charge     
 
# of ion       s       p       d       tot
------------------------------------------
    1        0.501   0.500   8.315   9.316
    2        0.502   0.498   8.333   9.334
    3        0.501   0.497   8.320   9.319
    4        0.503   0.503   8.316   9.321
    5        0.508   0.510   8.324   9.342
    6        0.512   0.518   8.321   9.351
    7        0.496   0.489   8.323   9.307
    8        0.488   0.369   8.312   9.169
    9        0.500   0.398   8.313   9.211
   10        0.515   0.517   8.334   9.366
   11        0.493   0.376   8.309   9.179
   12        0.506   0.397   8.318   9.221
   13        0.496   0.491   8.313   9.301
   14        0.502   0.502   8.317   9.322
   15        0.515   0.527   8.321   9.363
   16        0.500   0.393   8.309   9.202
   17        0.507   0.408   8.319   9.234
   18        0.510   0.512   8.335   9.357
   19        0.493   0.382   8.317   9.192
   20        0.507   0.406   8.321   9.234
   21        0.495   0.488   8.316   9.299
   22        0.511   0.518   8.326   9.355
   23        0.506   0.508   8.314   9.328
   24        0.506   0.398   8.307   9.212
   25        0.510   0.402   8.321   9.233
   26        0.493   0.377   8.318   9.188
   27        0.502   0.397   8.324   9.222
   28        0.492   0.369   8.320   9.181
   29        0.504   0.392   8.323   9.219
   30        0.490   0.375   8.313   9.178
   31        0.503   0.395   8.319   9.217
   32        0.496   0.389   8.300   9.186
   33        0.504   0.400   8.315   9.220
   34        0.466   0.490   6.183   7.139
   35        0.471   0.502   6.198   7.171
   36        0.467   0.495   6.167   7.129
   37        0.465   0.387   6.112   6.964
   38        0.466   0.393   6.141   7.000
   39        0.475   0.508   6.186   7.169
   40        0.462   0.380   6.131   6.974
   41        0.466   0.394   6.156   7.016
   42        0.473   0.502   6.200   7.174
   43        0.476   0.507   6.196   7.179
   44        0.468   0.493   6.202   7.163
   45        0.474   0.500   6.204   7.178
   46        0.464   0.387   6.144   6.995
   47        0.466   0.387   6.151   7.004
   48        0.465   0.390   6.112   6.966
   49        0.461   0.381   6.119   6.962
   50        0.468   0.493   6.179   7.140
   51        0.467   0.492   6.188   7.147
   52        0.475   0.508   6.212   7.196
   53        0.465   0.387   6.134   6.986
   54        0.462   0.380   6.135   6.977
   55        0.477   0.506   6.229   7.212
   56        0.474   0.504   6.193   7.171
   57        0.468   0.390   6.142   7.000
   58        0.467   0.382   6.150   6.999
   59        0.473   0.500   6.191   7.165
   60        0.474   0.502   6.201   7.177
   61        0.478   0.509   6.216   7.202
   62        0.474   0.504   6.205   7.184
   63        0.467   0.386   6.148   7.001
   64        0.466   0.382   6.158   7.005
--------------------------------------------------
tot         31.109  28.524 465.790 525.424
 


 magnetization (x)
 
# of ion       s       p       d       tot
------------------------------------------
    1       -0.022  -0.051   0.740   0.666
    2       -0.020  -0.041   0.688   0.627
    3       -0.023  -0.046   0.713   0.644
    4       -0.020  -0.047   0.754   0.686
    5       -0.025  -0.054   0.730   0.650
    6       -0.024  -0.049   0.756   0.684
    7       -0.018  -0.039   0.707   0.650
    8       -0.020  -0.031   0.691   0.640
    9       -0.020  -0.037   0.735   0.678
   10       -0.026  -0.046   0.701   0.629
   11       -0.021  -0.030   0.715   0.664
   12       -0.024  -0.034   0.727   0.669
   13       -0.017  -0.039   0.741   0.685
   14       -0.020  -0.047   0.745   0.677
   15       -0.028  -0.060   0.749   0.661
   16       -0.028  -0.046   0.729   0.655
   17       -0.024  -0.041   0.706   0.641
   18       -0.019  -0.040   0.689   0.631
   19       -0.021  -0.034   0.679   0.624
   20       -0.026  -0.041   0.692   0.624
   21       -0.014  -0.034   0.727   0.679
   22       -0.024  -0.050   0.728   0.654
   23       -0.026  -0.058   0.750   0.666
   24       -0.029  -0.044   0.749   0.676
   25       -0.030  -0.040   0.715   0.645
   26       -0.019  -0.029   0.676   0.628
   27       -0.021  -0.033   0.686   0.631
   28       -0.020  -0.025   0.670   0.625
   29       -0.022  -0.028   0.705   0.655
   30       -0.021  -0.032   0.700   0.647
   31       -0.023  -0.036   0.725   0.666
   32       -0.023  -0.041   0.734   0.670
   33       -0.030  -0.044   0.714   0.641
   34       -0.002  -0.028   2.708   2.678
   35       -0.008  -0.040   2.664   2.616
   36        0.003  -0.019   2.770   2.755
   37        0.010  -0.009   2.891   2.892
   38        0.003  -0.018   2.826   2.812
   39       -0.001  -0.023   2.721   2.697
   40        0.005  -0.014   2.843   2.833
   41        0.001  -0.021   2.779   2.759
   42       -0.009  -0.040   2.658   2.608
   43       -0.006  -0.032   2.683   2.644
   44       -0.004  -0.026   2.659   2.629
   45       -0.005  -0.027   2.650   2.617
   46        0.005  -0.015   2.814   2.804
   47       -0.003  -0.023   2.799   2.773
   48        0.012  -0.009   2.901   2.905
   49        0.012  -0.006   2.890   2.896
   50       -0.001  -0.024   2.727   2.702
   51       -0.006  -0.032   2.687   2.649
   52       -0.012  -0.041   2.614   2.561
   53        0.007  -0.009   2.843   2.841
   54        0.008  -0.010   2.852   2.850
   55       -0.014  -0.042   2.561   2.506
   56       -0.001  -0.022   2.692   2.670
   57        0.008  -0.009   2.828   2.826
   58        0.004  -0.008   2.811   2.806
   59       -0.002  -0.021   2.695   2.672
   60       -0.001  -0.017   2.673   2.655
   61       -0.010  -0.036   2.609   2.563
   62       -0.009  -0.038   2.635   2.588
   63        0.003  -0.012   2.806   2.797
   64        0.002  -0.012   2.786   2.776
--------------------------------------------------
tot         -0.758  -2.031 108.737 105.949
 

 total amount of memory used by VASP MPI-rank0   113826. kBytes
=======================================================================

   base      :      30000. kBytes
   nonlr-proj:      13002. kBytes
   fftplans  :       6403. kBytes
   grid      :      16455. kBytes
   one-center:         93. kBytes
   wavefun   :      47873. kBytes
 
  
  
 General timing and accounting informations for this job:
 ========================================================
  
                  Total CPU time used (sec):     7513.131
                            User time (sec):     7481.385
                          System time (sec):       31.746
                         Elapsed time (sec):     7583.981
  
                   Maximum memory used (kb):      163232.
                   Average memory used (kb):           0.
  
                          Minor page faults:      2223891
                          Major page faults:            0
                 Voluntary context switches:         8291
