SQS-NiFe                                
           1
    10.100310    0.000000    0.000000
    -5.050155    8.747125    0.000000
     0.000000    0.000000   21.253799
   Ni   Fe
  33  31
Direct configuration=     1
   0.99904300  0.00064200  0.19052303
   0.24849100  0.99862800  0.19205463
   0.49902500  0.00192700  0.19180553
   0.99813900  0.25067400  0.19194230
   0.24921500  0.24886200  0.19118596
   0.32800052  0.16475966  0.28489186
   0.74893500  0.25278100  0.19317475
   0.41837500  0.08394000  0.09411799
   0.41821172  0.08533467  0.37775726
   0.83176771  0.16780499  0.28490938
   0.66797000  0.08472300  0.09569325
   0.66674798  0.08142193  0.37701018
   0.99908600  0.49910800  0.19304001
   0.74816900  0.49871100  0.19204590
   0.57945116  0.41724359  0.28311698
   0.41961000  0.33337100  0.09413982
   0.41513261  0.33386706  0.37690308
   0.83351854  0.41900218  0.28563928
   0.91855900  0.33501600  0.09568743
   0.92100622  0.33359621  0.37805862
   0.99765800  0.74896900  0.19256042
   0.08354721  0.67004792  0.28484300
   0.75346500  0.75172800  0.19162859
   0.41737300  0.58352400  0.09623425
   0.41722419  0.58238141  0.37604862
   0.91550800  0.58461900  0.09542872
   0.91513999  0.58120785  0.37731367
   0.16682900  0.83490800  0.09456674
   0.17013421  0.83674891  0.37600848
   0.41715300  0.83338800  0.09679270
   0.41806530  0.83067169  0.37668370
   0.91985100  0.83263700  0.09539845
   0.91535082  0.83558570  0.37899677
   0.74918200  0.00453800  0.19311305
   0.07920288  0.16381470  0.28657755
   0.49319000  0.24544000  0.19167806
   0.17139600  0.08339300  0.09535888
   0.15420564  0.08211589  0.37375677
   0.57477127  0.16664647  0.28486485
   0.91693100  0.08581500  0.09410082
   0.92079468  0.08006782  0.37316152
   0.24596400  0.49669300  0.19369944
   0.09468450  0.41999191  0.28537167
   0.50297300  0.49962100  0.19096333
   0.33117373  0.42423083  0.28374397
   0.17081400  0.33724200  0.09550526
   0.16774162  0.33319021  0.37132746
   0.67264700  0.33598100  0.09600347
   0.66307077  0.32999405  0.37179010
   0.24490500  0.75270000  0.19343637
   0.49840300  0.74988300  0.19260698
   0.33089162  0.66901407  0.28270618
   0.16470600  0.58627100  0.09733079
   0.16726617  0.57541199  0.37241728
   0.57804852  0.66454743  0.28201230
   0.83050249  0.67491551  0.28744104
   0.66762500  0.58426200  0.09519882
   0.67134417  0.58994742  0.37096333
   0.07753028  0.92039408  0.28670933
   0.33911321  0.91776239  0.28432732
   0.57979695  0.91105065  0.28222616
   0.83417567  0.92036673  0.28493612
   0.66841400  0.83351100  0.09659831
   0.66932878  0.83383394  0.37065121
Direct configuration=     2
   0.99904300  0.00064200  0.19052303
   0.24849100  0.99862800  0.19205463
   0.49902500  0.00192700  0.19180553
   0.99813900  0.25067400  0.19194230
   0.24921500  0.24886200  0.19118596
   0.32975230  0.16612583  0.28522812
   0.74893500  0.25278100  0.19317475
   0.41837500  0.08394000  0.09411799
   0.41649216  0.08377160  0.37816954
   0.83132365  0.16892156  0.28568836
   0.66797000  0.08472300  0.09569325
   0.66640388  0.08128876  0.37699565
   0.99908600  0.49910800  0.19304001
   0.74816900  0.49871100  0.19204590
   0.57933019  0.41594804  0.28338326
   0.41961000  0.33337100  0.09413982
   0.41564971  0.33382254  0.37659398
   0.83349865  0.41867845  0.28593537
   0.91855900  0.33501600  0.09568743
   0.91919546  0.33272898  0.37773503
   0.99765800  0.74896900  0.19256042
   0.08178024  0.66894950  0.28524899
   0.75346500  0.75172800  0.19162859
   0.41737300  0.58352400  0.09623425
   0.41788078  0.58328531  0.37697066
   0.91550800  0.58461900  0.09542872
   0.91540619  0.58257077  0.37775416
   0.16682900  0.83490800  0.09456674
   0.16916154  0.83609823  0.37680638
   0.41715300  0.83338800  0.09679270
   0.41768249  0.83180437  0.37733859
   0.91985100  0.83263700  0.09539845
   0.91683438  0.83343908  0.38032436
   0.74918200  0.00453800  0.19311305
   0.08069465  0.16650646  0.28211612
   0.49319000  0.24544000  0.19167806
   0.17139600  0.08339300  0.09535888
   0.16203458  0.08289320  0.37718657
   0.57981497  0.16731746  0.28467522
   0.91693100  0.08581500  0.09410082
   0.91614615  0.08294123  0.37632243
   0.24596400  0.49669300  0.19369944
   0.08160738  0.41708228  0.28421527
   0.50297300  0.49962100  0.19096333
   0.33667217  0.41914774  0.28381006
   0.17081400  0.33724200  0.09550526
   0.16911167  0.33306919  0.37577057
   0.67264700  0.33598100  0.09600347
   0.66523848  0.33130098  0.37441700
   0.24490500  0.75270000  0.19343637
   0.49840300  0.74988300  0.19260698
   0.33253202  0.67069202  0.28446408
   0.16470600  0.58627100  0.09733079
   0.16778793  0.58096858  0.37500854
   0.57975393  0.66549430  0.28221590
   0.83246927  0.67019855  0.28565758
   0.66762500  0.58426200  0.09519882
   0.66772669  0.58633235  0.37462371
   0.08058351  0.91685272  0.28510132
   0.33539634  0.91780820  0.28590112
   0.58207457  0.91711095  0.28396838
   0.83224566  0.91876743  0.28330138
   0.66841400  0.83351100  0.09659831
   0.66638812  0.83272431  0.37335405
Direct configuration=     3
   0.99904300  0.00064200  0.19052303
   0.24849100  0.99862800  0.19205463
   0.49902500  0.00192700  0.19180553
   0.99813900  0.25067400  0.19194230
   0.24921500  0.24886200  0.19118596
   0.33083558  0.16697065  0.28543607
   0.74893500  0.25278100  0.19317475
   0.41837500  0.08394000  0.09411799
   0.41542881  0.08280502  0.37842448
   0.83104905  0.16961202  0.28617007
   0.66797000  0.08472300  0.09569325
   0.66619110  0.08120641  0.37698666
   0.99908600  0.49910800  0.19304001
   0.74816900  0.49871100  0.19204590
   0.57925539  0.41514689  0.28354792
   0.41961000  0.33337100  0.09413982
   0.41596948  0.33379501  0.37640284
   0.83348636  0.41847826  0.28611847
   0.91855900  0.33501600  0.09568743
   0.91807571  0.33219270  0.37753493
   0.99765800  0.74896900  0.19256042
   0.08068757  0.66827025  0.28550005
   0.75346500  0.75172800  0.19162859
   0.41737300  0.58352400  0.09623425
   0.41828680  0.58384428  0.37754084
   0.91550800  0.58461900  0.09542872
   0.91557080  0.58341358  0.37802655
   0.16682900  0.83490800  0.09456674
   0.16856006  0.83569586  0.37729979
   0.41715300  0.83338800  0.09679270
   0.41744577  0.83250481  0.37774356
   0.91985100  0.83263700  0.09539845
   0.91775179  0.83211164  0.38114532
   0.74918200  0.00453800  0.19311305
   0.08161713  0.16817100  0.27935724
   0.49319000  0.24544000  0.19167806
   0.17139600  0.08339300  0.09535888
   0.16687589  0.08337389  0.37930751
   0.58293392  0.16773240  0.28455796
   0.91693100  0.08581500  0.09410082
   0.91327157  0.08471811  0.37827709
   0.24596400  0.49669300  0.19369944
   0.07352068  0.41528300  0.28350017
   0.50297300  0.49962100  0.19096333
   0.34007232  0.41600444  0.28385094
   0.17081400  0.33724200  0.09550526
   0.16995890  0.33299435  0.37851812
   0.67264700  0.33598100  0.09600347
   0.66657896  0.33210917  0.37604144
   0.24490500  0.75270000  0.19343637
   0.49840300  0.74988300  0.19260698
   0.33354642  0.67172964  0.28555114
   0.16470600  0.58627100  0.09733079
   0.16811057  0.58440469  0.37661093
   0.58080854  0.66607982  0.28234181
   0.83368550  0.66728165  0.28455472
   0.66762500  0.58426200  0.09519882
   0.66548970  0.58409684  0.37688724
   0.08247159  0.91466279  0.28410695
   0.33309789  0.91783652  0.28687434
   0.58348302  0.92085855  0.28504574
   0.83105217  0.91777845  0.28229048
   0.66841400  0.83351100  0.09659831
   0.66456966  0.83203813  0.37502544
Direct configuration=     4
   0.99904300  0.00064200  0.19052303
   0.24849100  0.99862800  0.19205463
   0.49902500  0.00192700  0.19180553
   0.99813900  0.25067400  0.19194230
   0.24921500  0.24886200  0.19118596
   0.33154418  0.16621284  0.28575608
   0.74893500  0.25278100  0.19317475
   0.41837500  0.08394000  0.09411799
   0.41554421  0.08254238  0.37879484
   0.83158524  0.16908288  0.28666951
   0.66797000  0.08472300  0.09569325
   0.66543421  0.08175133  0.37811254
   0.99908600  0.49910800  0.19304001
   0.74816900  0.49871100  0.19204590
   0.58193146  0.41471269  0.28428945
   0.41961000  0.33337100  0.09413982
   0.41667005  0.33329085  0.37711562
   0.83123474  0.41790071  0.28646979
   0.91855900  0.33501600  0.09568743
   0.91792305  0.33302199  0.37807034
   0.99765800  0.74896900  0.19256042
   0.08034596  0.66676618  0.28582507
   0.75346500  0.75172800  0.19162859
   0.41737300  0.58352400  0.09623425
   0.41757035  0.58335667  0.37814307
   0.91550800  0.58461900  0.09542872
   0.91505026  0.58410745  0.37863897
   0.16682900  0.83490800  0.09456674
   0.16729893  0.83539350  0.37855108
   0.41715300  0.83338800  0.09679270
   0.41722244  0.83409388  0.37893095
   0.91985100  0.83263700  0.09539845
   0.91847787  0.83220301  0.38084115
   0.74918200  0.00453800  0.19311305
   0.08264150  0.16881009  0.28114513
   0.49319000  0.24544000  0.19167806
   0.17139600  0.08339300  0.09535888
   0.16810777  0.08362903  0.38024648
   0.58524399  0.16939288  0.28487392
   0.91693100  0.08581500  0.09410082
   0.91399891  0.08533999  0.37913394
   0.24596400  0.49669300  0.19369944
   0.07300461  0.41598610  0.28503301
   0.50297300  0.49962100  0.19096333
   0.33860474  0.41516980  0.28478541
   0.17081400  0.33724200  0.09550526
   0.16919386  0.33251716  0.37976436
   0.67264700  0.33598100  0.09600347
   0.66773104  0.33278652  0.37814108
   0.24490500  0.75270000  0.19343637
   0.49840300  0.74988300  0.19260698
   0.33260662  0.66844051  0.28677121
   0.16470600  0.58627100  0.09733079
   0.16733492  0.58565425  0.37821585
   0.58304488  0.66707107  0.28374237
   0.83259335  0.66353397  0.28523276
   0.66762500  0.58426200  0.09519882
   0.66476056  0.58337037  0.37878770
   0.08276496  0.91481115  0.28443980
   0.33240959  0.91865871  0.28759760
   0.58359630  0.92255220  0.28598654
   0.83217546  0.91689103  0.28393496
   0.66841400  0.83351100  0.09659831
   0.66398155  0.83124571  0.37687271
Direct configuration=     5
   0.99904300  0.00064200  0.19052303
   0.24849100  0.99862800  0.19205463
   0.49902500  0.00192700  0.19180553
   0.99813900  0.25067400  0.19194230
   0.24921500  0.24886200  0.19118596
   0.33293005  0.16473072  0.28638196
   0.74893500  0.25278100  0.19317475
   0.41837500  0.08394000  0.09411799
   0.41576989  0.08202872  0.37951919
   0.83263392  0.16804798  0.28764630
   0.66797000  0.08472300  0.09569325
   0.66395390  0.08281709  0.38031450
   0.99908600  0.49910800  0.19304001
   0.74816900  0.49871100  0.19204590
   0.58716527  0.41386350  0.28573971
   0.41961000  0.33337100  0.09413982
   0.41804020  0.33230484  0.37850966
   0.82683106  0.41677114  0.28715689
   0.91855900  0.33501600  0.09568743
   0.91762447  0.33464390  0.37911748
   0.99765800  0.74896900  0.19256042
   0.07967784  0.66382454  0.28646073
   0.75346500  0.75172800  0.19162859
   0.41737300  0.58352400  0.09623425
   0.41616911  0.58240301  0.37932089
   0.91550800  0.58461900  0.09542872
   0.91403219  0.58546452  0.37983672
   0.16682900  0.83490800  0.09456674
   0.16483243  0.83480215  0.38099832
   0.41715300  0.83338800  0.09679270
   0.41678565  0.83720174  0.38125322
   0.91985100  0.83263700  0.09539845
   0.91989790  0.83238171  0.38024626
   0.74918200  0.00453800  0.19311305
   0.08464493  0.17006003  0.28464186
   0.49319000  0.24544000  0.19167806
   0.17139600  0.08339300  0.09535888
   0.17051707  0.08412803  0.38208291
   0.58976199  0.17264041  0.28549187
   0.91693100  0.08581500  0.09410082
   0.91542144  0.08655626  0.38080974
   0.24596400  0.49669300  0.19369944
   0.07199529  0.41736120  0.28803091
   0.50297300  0.49962100  0.19096333
   0.33573447  0.41353744  0.28661304
   0.17081400  0.33724200  0.09550526
   0.16769762  0.33158389  0.38220173
   0.67264700  0.33598100  0.09600347
   0.66998425  0.33411127  0.38224751
   0.24490500  0.75270000  0.19343637
   0.49840300  0.74988300  0.19260698
   0.33076860  0.66200767  0.28915741
   0.16470600  0.58627100  0.09733079
   0.16581792  0.58809810  0.38135473
   0.58741867  0.66900974  0.28648156
   0.83045733  0.65620433  0.28655886
   0.66762500  0.58426200  0.09519882
   0.66333452  0.58194954  0.38250459
   0.08333872  0.91510130  0.28509077
   0.33106343  0.92026672  0.28901216
   0.58381785  0.92586463  0.28782656
   0.83437235  0.91515543  0.28715121
   0.66841400  0.83351100  0.09659831
   0.66283133  0.82969591  0.38048555
Direct configuration=     6
   0.99904300  0.00064200  0.19052303
   0.24849100  0.99862800  0.19205463
   0.49902500  0.00192700  0.19180553
   0.99813900  0.25067400  0.19194230
   0.24921500  0.24886200  0.19118596
   0.33408731  0.16562990  0.28654221
   0.74893500  0.25278100  0.19317475
   0.41837500  0.08394000  0.09411799
   0.41703808  0.08301309  0.38049106
   0.83359710  0.16725223  0.28832128
   0.66797000  0.08472300  0.09569325
   0.66492452  0.08397391  0.38179652
   0.99908600  0.49910800  0.19304001
   0.74816900  0.49871100  0.19204590
   0.58487254  0.41392193  0.28672649
   0.41961000  0.33337100  0.09413982
   0.41841088  0.33218284  0.37932020
   0.82868782  0.41521589  0.28793332
   0.91855900  0.33501600  0.09568743
   0.91708010  0.33529462  0.38054059
   0.99765800  0.74896900  0.19256042
   0.08076552  0.66468839  0.28713396
   0.75346500  0.75172800  0.19162859
   0.41737300  0.58352400  0.09623425
   0.41519838  0.58126685  0.38110780
   0.91550800  0.58461900  0.09542872
   0.91330336  0.58509716  0.38101893
   0.16682900  0.83490800  0.09456674
   0.16453699  0.83498179  0.38186431
   0.41715300  0.83338800  0.09679270
   0.41601493  0.83705559  0.38214553
   0.91985100  0.83263700  0.09539845
   0.91946901  0.83262685  0.38058015
   0.74918200  0.00453800  0.19311305
   0.08444988  0.16948769  0.28555132
   0.49319000  0.24544000  0.19167806
   0.17139600  0.08339300  0.09535888
   0.17030652  0.08406079  0.38270636
   0.58864108  0.17244647  0.28671086
   0.91693100  0.08581500  0.09410082
   0.91579891  0.08639232  0.38179016
   0.24596400  0.49669300  0.19369944
   0.07344178  0.41674844  0.28851229
   0.50297300  0.49962100  0.19096333
   0.33722787  0.41375939  0.28734209
   0.17081400  0.33724200  0.09550526
   0.16771919  0.33240176  0.38360557
   0.67264700  0.33598100  0.09600347
   0.67007722  0.33413318  0.38418467
   0.24490500  0.75270000  0.19343637
   0.49840300  0.74988300  0.19260698
   0.33148800  0.66327713  0.28995051
   0.16470600  0.58627100  0.09733079
   0.16542197  0.58874029  0.38324691
   0.58802935  0.66865557  0.28764066
   0.83010012  0.65714487  0.28721586
   0.66762500  0.58426200  0.09519882
   0.66365608  0.58234183  0.38419735
   0.08244834  0.91439169  0.28567257
   0.33097532  0.91767296  0.28938347
   0.58198259  0.92222321  0.28867709
   0.83532310  0.91566080  0.28806802
   0.66841400  0.83351100  0.09659831
   0.66219193  0.83019591  0.38247575
Direct configuration=     7
   0.99904300  0.00064200  0.19052303
   0.24849100  0.99862800  0.19205463
   0.49902500  0.00192700  0.19180553
   0.99813900  0.25067400  0.19194230
   0.24921500  0.24886200  0.19118596
   0.33543758  0.16667905  0.28672918
   0.74893500  0.25278100  0.19317475
   0.41837500  0.08394000  0.09411799
   0.41851779  0.08416163  0.38162503
   0.83472092  0.16632375  0.28910883
   0.66797000  0.08472300  0.09569325
   0.66605701  0.08532366  0.38352571
   0.99908600  0.49910800  0.19304001
   0.74816900  0.49871100  0.19204590
   0.58219743  0.41399010  0.28787786
   0.41961000  0.33337100  0.09413982
   0.41884338  0.33204049  0.38026592
   0.83085425  0.41340126  0.28883924
   0.91855900  0.33501600  0.09568743
   0.91644494  0.33605387  0.38220105
   0.99765800  0.74896900  0.19256042
   0.08203461  0.66569632  0.28791946
   0.75346500  0.75172800  0.19162859
   0.41737300  0.58352400  0.09623425
   0.41406575  0.57994120  0.38319273
   0.91550800  0.58461900  0.09542872
   0.91245298  0.58466853  0.38239830
   0.16682900  0.83490800  0.09456674
   0.16419227  0.83519138  0.38287473
   0.41715300  0.83338800  0.09679270
   0.41511567  0.83688506  0.38318667
   0.91985100  0.83263700  0.09539845
   0.91896859  0.83291288  0.38096971
   0.74918200  0.00453800  0.19311305
   0.08422229  0.16881989  0.28661245
   0.49319000  0.24544000  0.19167806
   0.17139600  0.08339300  0.09535888
   0.17006085  0.08398233  0.38343380
   0.58733322  0.17222018  0.28813317
   0.91693100  0.08581500  0.09410082
   0.91623933  0.08620104  0.38293410
   0.24596400  0.49669300  0.19369944
   0.07512952  0.41603349  0.28907396
   0.50297300  0.49962100  0.19096333
   0.33897035  0.41401836  0.28819272
   0.17081400  0.33724200  0.09550526
   0.16774437  0.33335604  0.38524354
   0.67264700  0.33598100  0.09600347
   0.67018569  0.33415875  0.38644491
   0.24490500  0.75270000  0.19343637
   0.49840300  0.74988300  0.19260698
   0.33232739  0.66475831  0.29087589
   0.16470600  0.58627100  0.09733079
   0.16495999  0.58948957  0.38545467
   0.58874187  0.66824234  0.28899308
   0.82968333  0.65824227  0.28798244
   0.66762500  0.58426200  0.09519882
   0.66403127  0.58279956  0.38617243
   0.08140947  0.91356374  0.28635140
   0.33087250  0.91464662  0.28981670
   0.57984125  0.91797448  0.28966947
   0.83643242  0.91625044  0.28913774
   0.66841400  0.83351100  0.09659831
   0.66144589  0.83077930  0.38479789
Direct configuration=     8
   0.99904300  0.00064200  0.19052303
   0.24849100  0.99862800  0.19205463
   0.49902500  0.00192700  0.19180553
   0.99813900  0.25067400  0.19194230
   0.24921500  0.24886200  0.19118596
   0.33441029  0.16496622  0.28726042
   0.74893500  0.25278100  0.19317475
   0.41837500  0.08394000  0.09411799
   0.41846644  0.08416550  0.38236582
   0.83319438  0.16510761  0.29003134
   0.66797000  0.08472300  0.09569325
   0.66735256  0.08526076  0.38407012
   0.99908600  0.49910800  0.19304001
   0.74816900  0.49871100  0.19204590
   0.58379513  0.41478771  0.28854583
   0.41961000  0.33337100  0.09413982
   0.41815556  0.33175396  0.38174449
   0.83100505  0.41351083  0.28977612
   0.91855900  0.33501600  0.09568743
   0.91725546  0.33597447  0.38341507
   0.99765800  0.74896900  0.19256042
   0.08134727  0.66513499  0.28894214
   0.75346500  0.75172800  0.19162859
   0.41737300  0.58352400  0.09623425
   0.41368645  0.57985214  0.38478923
   0.91550800  0.58461900  0.09542872
   0.91196242  0.58432717  0.38316040
   0.16682900  0.83490800  0.09456674
   0.16457355  0.83597961  0.38331087
   0.41715300  0.83338800  0.09679270
   0.41447381  0.83615488  0.38471831
   0.91985100  0.83263700  0.09539845
   0.91772940  0.83273190  0.38272415
   0.74918200  0.00453800  0.19311305
   0.08545217  0.16866990  0.28636437
   0.49319000  0.24544000  0.19167806
   0.17139600  0.08339300  0.09535888
   0.16993045  0.08439048  0.38368644
   0.58698107  0.17038394  0.28932830
   0.91693100  0.08581500  0.09410082
   0.91592894  0.08616342  0.38422689
   0.24596400  0.49669300  0.19369944
   0.07758673  0.41645357  0.28978880
   0.50297300  0.49962100  0.19096333
   0.33940536  0.41551452  0.28863400
   0.17081400  0.33724200  0.09550526
   0.16805404  0.33429169  0.38643909
   0.67264700  0.33598100  0.09600347
   0.67009514  0.33481083  0.38753496
   0.24490500  0.75270000  0.19343637
   0.49840300  0.74988300  0.19260698
   0.33270042  0.66381158  0.29177197
   0.16470600  0.58627100  0.09733079
   0.16470550  0.58925579  0.38675266
   0.58808838  0.66816472  0.29009646
   0.82982555  0.65769463  0.28827073
   0.66762500  0.58426200  0.09519882
   0.66422362  0.58361339  0.38747476
   0.08266843  0.91392851  0.28643325
   0.33122170  0.91444991  0.29031886
   0.58144893  0.91761516  0.29055430
   0.83466973  0.91664971  0.28900402
   0.66841400  0.83351100  0.09659831
   0.66082430  0.83158690  0.38671042
Direct configuration=     9
   0.99904300  0.00064200  0.19052303
   0.24849100  0.99862800  0.19205463
   0.49902500  0.00192700  0.19180553
   0.99813900  0.25067400  0.19194230
   0.24921500  0.24886200  0.19118596
   0.33419066  0.16460003  0.28737399
   0.74893500  0.25278100  0.19317475
   0.41837500  0.08394000  0.09411799
   0.41845546  0.08416633  0.38252419
   0.83286802  0.16484761  0.29022857
   0.66797000  0.08472300  0.09569325
   0.66762954  0.08524731  0.38418652
   0.99908600  0.49910800  0.19304001
   0.74816900  0.49871100  0.19204590
   0.58413671  0.41495823  0.28868863
   0.41961000  0.33337100  0.09413982
   0.41800851  0.33169271  0.38206060
   0.83103729  0.41353426  0.28997641
   0.91855900  0.33501600  0.09568743
   0.91742875  0.33595749  0.38367462
   0.99765800  0.74896900  0.19256042
   0.08120032  0.66501498  0.28916079
   0.75346500  0.75172800  0.19162859
   0.41737300  0.58352400  0.09623425
   0.41360536  0.57983310  0.38513055
   0.91550800  0.58461900  0.09542872
   0.91185754  0.58425418  0.38332333
   0.16682900  0.83490800  0.09456674
   0.16465507  0.83614813  0.38340411
   0.41715300  0.83338800  0.09679270
   0.41433658  0.83599878  0.38504576
   0.91985100  0.83263700  0.09539845
   0.91746446  0.83269321  0.38309924
   0.74918200  0.00453800  0.19311305
   0.08571511  0.16863784  0.28631133
   0.49319000  0.24544000  0.19167806
   0.17139600  0.08339300  0.09535888
   0.16990257  0.08447774  0.38374045
   0.58690578  0.16999137  0.28958382
   0.91693100  0.08581500  0.09410082
   0.91586259  0.08615538  0.38450328
   0.24596400  0.49669300  0.19369944
   0.07811207  0.41654338  0.28994163
   0.50297300  0.49962100  0.19096333
   0.33949837  0.41583439  0.28872835
   0.17081400  0.33724200  0.09550526
   0.16812024  0.33449173  0.38669469
   0.67264700  0.33598100  0.09600347
   0.67007578  0.33495025  0.38776800
   0.24490500  0.75270000  0.19343637
   0.49840300  0.74988300  0.19260698
   0.33278017  0.66360917  0.29196354
   0.16470600  0.58627100  0.09733079
   0.16465109  0.58920581  0.38703016
   0.58794867  0.66814813  0.29033235
   0.82985595  0.65757755  0.28833236
   0.66762500  0.58426200  0.09519882
   0.66426474  0.58378738  0.38775319
   0.08293759  0.91400650  0.28645075
   0.33129636  0.91440786  0.29042622
   0.58179264  0.91753834  0.29074348
   0.83429288  0.91673507  0.28897543
   0.66841400  0.83351100  0.09659831
   0.66069141  0.83175956  0.38711931
Direct configuration=    10
   0.99904300  0.00064200  0.19052303
   0.24849100  0.99862800  0.19205463
   0.49902500  0.00192700  0.19180553
   0.99813900  0.25067400  0.19194230
   0.24921500  0.24886200  0.19118596
   0.33437002  0.16478249  0.28778220
   0.74893500  0.25278100  0.19317475
   0.41837500  0.08394000  0.09411799
   0.41781446  0.08350205  0.38273532
   0.83331786  0.16633288  0.29037453
   0.66797000  0.08472300  0.09569325
   0.66734675  0.08462195  0.38433515
   0.99908600  0.49910800  0.19304001
   0.74816900  0.49871100  0.19204590
   0.58528059  0.41429961  0.28889264
   0.41961000  0.33337100  0.09413982
   0.41751985  0.33192777  0.38214072
   0.83023755  0.41357922  0.29020697
   0.91855900  0.33501600  0.09568743
   0.91846905  0.33572161  0.38355385
   0.99765800  0.74896900  0.19256042
   0.08072344  0.66405626  0.28937325
   0.75346500  0.75172800  0.19162859
   0.41737300  0.58352400  0.09623425
   0.41424658  0.58071062  0.38556030
   0.91550800  0.58461900  0.09542872
   0.91204691  0.58454358  0.38346340
   0.16682900  0.83490800  0.09456674
   0.16455714  0.83639874  0.38338517
   0.41715300  0.83338800  0.09679270
   0.41439359  0.83577583  0.38552509
   0.91985100  0.83263700  0.09539845
   0.91679007  0.83285325  0.38342659
   0.74918200  0.00453800  0.19311305
   0.08551965  0.16879640  0.28615151
   0.49319000  0.24544000  0.19167806
   0.17139600  0.08339300  0.09535888
   0.16929113  0.08477643  0.38366376
   0.58764293  0.16963587  0.28939279
   0.91693100  0.08581500  0.09410082
   0.91622463  0.08622743  0.38468304
   0.24596400  0.49669300  0.19369944
   0.07686990  0.41614318  0.29030107
   0.50297300  0.49962100  0.19096333
   0.33984019  0.41553053  0.28904321
   0.17081400  0.33724200  0.09550526
   0.16822422  0.33413211  0.38685346
   0.67264700  0.33598100  0.09600347
   0.67003228  0.33529250  0.38754041
   0.24490500  0.75270000  0.19343637
   0.49840300  0.74988300  0.19260698
   0.33279306  0.66348535  0.29236180
   0.16470600  0.58627100  0.09733079
   0.16455737  0.58903718  0.38714955
   0.58783143  0.66824852  0.29060116
   0.83041898  0.65802282  0.28853493
   0.66762500  0.58426200  0.09519882
   0.66397990  0.58437602  0.38785660
   0.08222234  0.91354403  0.28657175
   0.33221105  0.91478941  0.29073188
   0.58229281  0.91844841  0.29098567
   0.83396571  0.91563276  0.28922163
   0.66841400  0.83351100  0.09659831
   0.66084214  0.83189023  0.38770708
Direct configuration=    11
   0.99904300  0.00064200  0.19052303
   0.24849100  0.99862800  0.19205463
   0.49902500  0.00192700  0.19180553
   0.99813900  0.25067400  0.19194230
   0.24921500  0.24886200  0.19118596
   0.33443751  0.16485114  0.28793578
   0.74893500  0.25278100  0.19317475
   0.41837500  0.08394000  0.09411799
   0.41757329  0.08325211  0.38281476
   0.83348712  0.16689172  0.29042944
   0.66797000  0.08472300  0.09569325
   0.66724035  0.08438665  0.38439107
   0.99908600  0.49910800  0.19304001
   0.74816900  0.49871100  0.19204590
   0.58571098  0.41405180  0.28896939
   0.41961000  0.33337100  0.09413982
   0.41733599  0.33201622  0.38217087
   0.82993665  0.41359614  0.29029372
   0.91855900  0.33501600  0.09568743
   0.91886047  0.33563286  0.38350841
   0.99765800  0.74896900  0.19256042
   0.08054401  0.66369554  0.28945319
   0.75346500  0.75172800  0.19162859
   0.41737300  0.58352400  0.09623425
   0.41448784  0.58104078  0.38572199
   0.91550800  0.58461900  0.09542872
   0.91211817  0.58465247  0.38351610
   0.16682900  0.83490800  0.09456674
   0.16452030  0.83649303  0.38337804
   0.41715300  0.83338800  0.09679270
   0.41441504  0.83569195  0.38570544
   0.91985100  0.83263700  0.09539845
   0.91653632  0.83291347  0.38354976
   0.74918200  0.00453800  0.19311305
   0.08544610  0.16885605  0.28609137
   0.49319000  0.24544000  0.19167806
   0.17139600  0.08339300  0.09535888
   0.16906107  0.08488882  0.38363490
   0.58792028  0.16950212  0.28932091
   0.91693100  0.08581500  0.09410082
   0.91636085  0.08625454  0.38475068
   0.24596400  0.49669300  0.19369944
   0.07640253  0.41599260  0.29043631
   0.50297300  0.49962100  0.19096333
   0.33996880  0.41541620  0.28916167
   0.17081400  0.33724200  0.09550526
   0.16826335  0.33399681  0.38691319
   0.67264700  0.33598100  0.09600347
   0.67001592  0.33542127  0.38745478
   0.24490500  0.75270000  0.19343637
   0.49840300  0.74988300  0.19260698
   0.33279791  0.66343877  0.29251165
   0.16470600  0.58627100  0.09733079
   0.16452211  0.58897373  0.38719447
   0.58778732  0.66828629  0.29070230
   0.83063083  0.65819036  0.28861115
   0.66762500  0.58426200  0.09519882
   0.66387273  0.58459750  0.38789551
   0.08195323  0.91337003  0.28661728
   0.33255521  0.91493297  0.29084689
   0.58248100  0.91879083  0.29107679
   0.83384261  0.91521801  0.28931426
   0.66841400  0.83351100  0.09659831
   0.66089885  0.83193939  0.38792823
Direct configuration=    12
   0.99904300  0.00064200  0.19052303
   0.24849100  0.99862800  0.19205463
   0.49902500  0.00192700  0.19180553
   0.99813900  0.25067400  0.19194230
   0.24921500  0.24886200  0.19118596
   0.33440794  0.16482106  0.28786848
   0.74893500  0.25278100  0.19317475
   0.41837500  0.08394000  0.09411799
   0.41767896  0.08336163  0.38277995
   0.83341295  0.16664685  0.29040538
   0.66797000  0.08472300  0.09569325
   0.66728697  0.08448975  0.38436656
   0.99908600  0.49910800  0.19304001
   0.74816900  0.49871100  0.19204590
   0.58552240  0.41416039  0.28893576
   0.41961000  0.33337100  0.09413982
   0.41741655  0.33197746  0.38215766
   0.83006850  0.41358873  0.29025571
   0.91855900  0.33501600  0.09568743
   0.91868896  0.33567175  0.38352832
   0.99765800  0.74896900  0.19256042
   0.08062263  0.66385359  0.28941816
   0.75346500  0.75172800  0.19162859
   0.41737300  0.58352400  0.09623425
   0.41438213  0.58089611  0.38565114
   0.91550800  0.58461900  0.09542872
   0.91208695  0.58460476  0.38349301
   0.16682900  0.83490800  0.09456674
   0.16453644  0.83645172  0.38338116
   0.41715300  0.83338800  0.09679270
   0.41440564  0.83572870  0.38562641
   0.91985100  0.83263700  0.09539845
   0.91664751  0.83288708  0.38349579
   0.74918200  0.00453800  0.19311305
   0.08547833  0.16882991  0.28611772
   0.49319000  0.24544000  0.19167806
   0.17139600  0.08339300  0.09535888
   0.16916188  0.08483957  0.38364754
   0.58779875  0.16956073  0.28935241
   0.91693100  0.08581500  0.09410082
   0.91630117  0.08624266  0.38472105
   0.24596400  0.49669300  0.19369944
   0.07660732  0.41605858  0.29037705
   0.50297300  0.49962100  0.19096333
   0.33991244  0.41546629  0.28910976
   0.17081400  0.33724200  0.09550526
   0.16824620  0.33405610  0.38688702
   0.67264700  0.33598100  0.09600347
   0.67002309  0.33536485  0.38749230
   0.24490500  0.75270000  0.19343637
   0.49840300  0.74988300  0.19260698
   0.33279579  0.66345918  0.29244599
   0.16470600  0.58627100  0.09733079
   0.16453756  0.58900153  0.38717479
   0.58780665  0.66826974  0.29065799
   0.83053800  0.65811695  0.28857775
   0.66762500  0.58426200  0.09519882
   0.66391969  0.58450046  0.38787846
   0.08207115  0.91344627  0.28659733
   0.33240441  0.91487006  0.29079650
   0.58239854  0.91864079  0.29103686
   0.83389655  0.91539974  0.28927367
   0.66841400  0.83351100  0.09659831
   0.66087400  0.83191785  0.38783133
Direct configuration=    13
   0.99904300  0.00064200  0.19052303
   0.24849100  0.99862800  0.19205463
   0.49902500  0.00192700  0.19180553
   0.99813900  0.25067400  0.19194230
   0.24921500  0.24886200  0.19118596
   0.33461386  0.16487469  0.28792957