  16  16   1   0
  0.1142268E+02  0.4378463E-09  0.5652571E-09  0.7583720E-09  0.5000000E-15
  1.000000000000000E-004
  CAR 
 SQS-NiFe                                
     19.06824152     -3.96460501  301      6.61598235      1.00000000
     -3.965  0.0000E+00  0.0000E+00  0.0000E+00  0.0000E+00
     -3.888  0.0000E+00  0.0000E+00  0.0000E+00  0.0000E+00
     -3.811  0.0000E+00  0.0000E+00  0.0000E+00  0.0000E+00
     -3.734  0.0000E+00  0.0000E+00  0.0000E+00  0.0000E+00
     -3.658  0.0000E+00  0.0000E+00  0.0000E+00  0.0000E+00
     -3.581 -0.2193E-30  0.0000E+00 -0.1684E-31  0.0000E+00
     -3.504 -0.8897E-28 -0.3320E-30 -0.6848E-29 -0.2549E-31
     -3.427 -0.2685E-25 -0.1320E-27 -0.2069E-26 -0.1016E-28
     -3.350 -0.6018E-23 -0.3905E-25 -0.4641E-24 -0.3008E-26
     -3.274 -0.1001E-20 -0.8577E-23 -0.7731E-22 -0.6615E-24
     -3.197 -0.1235E-18 -0.1398E-20 -0.9557E-20 -0.1080E-21
     -3.120 -0.1093E-16 -0.1690E-18 -0.8485E-18 -0.1309E-19
     -3.043 -0.7389E-15 -0.1466E-16 -0.5758E-16 -0.1139E-17
     -2.967 -0.3683E-13 -0.9712E-15 -0.2885E-14 -0.7570E-16
     -2.890 -0.1355E-11 -0.4742E-13 -0.1069E-12 -0.3717E-14
     -2.813 -0.3668E-10 -0.1709E-11 -0.2923E-11 -0.1349E-12
     -2.736 -0.7287E-09 -0.4531E-10 -0.5887E-10 -0.3614E-11
     -2.659 -0.1057E-07 -0.8816E-09 -0.8708E-09 -0.7130E-10
     -2.583 -0.1113E-06 -0.1252E-07 -0.9414E-08 -0.1033E-08
     -2.506 -0.8395E-06 -0.1289E-06 -0.7387E-07 -0.1093E-07
     -2.429 -0.4449E-05 -0.9503E-06 -0.4155E-06 -0.8389E-07
     -2.352 -0.1589E-04 -0.4912E-05 -0.1635E-05 -0.4610E-06
     -2.276 -0.3419E-04 -0.1704E-04 -0.4260E-05 -0.1769E-05
     -2.199 -0.2393E-04 -0.3513E-04 -0.6098E-05 -0.4466E-05
     -2.122  0.9137E-04 -0.2046E-04  0.9169E-06 -0.6037E-05
     -2.045  0.3210E-03  0.1036E-03  0.2556E-04  0.1919E-05
     -1.968  0.4850E-03  0.3354E-03  0.6280E-04  0.2767E-04
     -1.892  0.4463E-03  0.4864E-03  0.9706E-04  0.6501E-04
     -1.815  0.5821E-03  0.4461E-03  0.1418E-03  0.9926E-04
     -1.738  0.1533E-02  0.6339E-03  0.2594E-03  0.1479E-03
     -1.661  0.3105E-02  0.1658E-02  0.4978E-03  0.2753E-03
     -1.585  0.4189E-02  0.3225E-02  0.8194E-03  0.5229E-03
     -1.508  0.4348E-02  0.4219E-02  0.1153E-02  0.8468E-03
     -1.431  0.4382E-02  0.4333E-02  0.1490E-02  0.1179E-02
     -1.354  0.4886E-02  0.4423E-02  0.1865E-02  0.1519E-02
     -1.277  0.5689E-02  0.5005E-02  0.2302E-02  0.1903E-02
     -1.201  0.6503E-02  0.5830E-02  0.2801E-02  0.2351E-02
     -1.124  0.6826E-02  0.6576E-02  0.3325E-02  0.2856E-02
     -1.047  0.5891E-02  0.6760E-02  0.3777E-02  0.3375E-02
     -0.970  0.3664E-02  0.5702E-02  0.4058E-02  0.3813E-02
     -0.894  0.1496E-02  0.3467E-02  0.4173E-02  0.4079E-02
     -0.817  0.1213E-02  0.1400E-02  0.4266E-02  0.4186E-02
     -0.740  0.3485E-02  0.1163E-02  0.4534E-02  0.4276E-02
     -0.663  0.7117E-02  0.3277E-02  0.5080E-02  0.4527E-02
     -0.586  0.9867E-02  0.6695E-02  0.5838E-02  0.5041E-02
     -0.510  0.1019E-01  0.9488E-02  0.6620E-02  0.5770E-02
     -0.433  0.8873E-02  0.1008E-01  0.7301E-02  0.6544E-02
     -0.356  0.8871E-02  0.8831E-02  0.7983E-02  0.7222E-02
     -0.279  0.1208E-01  0.8497E-02  0.8910E-02  0.7874E-02
     -0.203  0.1611E-01  0.1142E-01  0.1015E-01  0.8751E-02
     -0.126  0.1629E-01  0.1574E-01  0.1140E-01  0.9959E-02
     -0.049  0.1144E-01  0.1661E-01  0.1228E-01  0.1123E-01
      0.028  0.5529E-02  0.1217E-01  0.1270E-01  0.1217E-01
      0.105  0.2924E-02  0.5971E-02  0.1293E-01  0.1263E-01
      0.181  0.4222E-02  0.2734E-02  0.1325E-01  0.1284E-01
      0.258  0.7073E-02  0.3622E-02  0.1379E-01  0.1312E-01
      0.335  0.9011E-02  0.6365E-02  0.1448E-01  0.1360E-01
      0.412  0.9200E-02  0.8310E-02  0.1519E-01  0.1424E-01
      0.488  0.8778E-02  0.8526E-02  0.1586E-01  0.1490E-01
      0.565  0.1003E-01  0.7836E-02  0.1664E-01  0.1550E-01
      0.642  0.1423E-01  0.7966E-02  0.1773E-01  0.1611E-01
      0.719  0.1916E-01  0.1064E-01  0.1920E-01  0.1693E-01
      0.796  0.2035E-01  0.1572E-01  0.2076E-01  0.1813E-01
      0.872  0.1645E-01  0.1982E-01  0.2202E-01  0.1965E-01
      0.949  0.1182E-01  0.1918E-01  0.2293E-01  0.2113E-01
      1.026  0.1210E-01  0.1463E-01  0.2386E-01  0.2225E-01
      1.103  0.1831E-01  0.1116E-01  0.2527E-01  0.2311E-01
      1.179  0.2599E-01  0.1236E-01  0.2726E-01  0.2406E-01
      1.256  0.2933E-01  0.1735E-01  0.2951E-01  0.2539E-01
      1.333  0.2624E-01  0.2275E-01  0.3153E-01  0.2713E-01
      1.410  0.1978E-01  0.2534E-01  0.3305E-01  0.2908E-01
      1.487  0.1484E-01  0.2374E-01  0.3419E-01  0.3090E-01
      1.563  0.1445E-01  0.1939E-01  0.3530E-01  0.3239E-01
      1.640  0.1932E-01  0.1540E-01  0.3678E-01  0.3357E-01
      1.717  0.2942E-01  0.1358E-01  0.3904E-01  0.3462E-01
      1.794  0.4435E-01  0.1366E-01  0.4244E-01  0.3567E-01
      1.870  0.6259E-01  0.1514E-01  0.4725E-01  0.3683E-01
      1.947  0.8067E-01  0.1850E-01  0.5344E-01  0.3825E-01
      2.024  0.9344E-01  0.2433E-01  0.6062E-01  0.4012E-01
      2.101  0.9702E-01  0.3211E-01  0.6806E-01  0.4258E-01
      2.177  0.9294E-01  0.4053E-01  0.7520E-01  0.4569E-01
      2.254  0.8768E-01  0.4929E-01  0.8193E-01  0.4948E-01
      2.331  0.8701E-01  0.5919E-01  0.8861E-01  0.5402E-01
      2.408  0.9198E-01  0.6916E-01  0.9567E-01  0.5933E-01
      2.485  0.1010E+00  0.7563E-01  0.1034E+00  0.6514E-01
      2.561  0.1139E+00  0.7697E-01  0.1122E+00  0.7105E-01
      2.638  0.1294E+00  0.7568E-01  0.1221E+00  0.7686E-01
      2.715  0.1418E+00  0.7488E-01  0.1330E+00  0.8261E-01
      2.792  0.1455E+00  0.7573E-01  0.1442E+00  0.8842E-01
      2.868  0.1420E+00  0.7860E-01  0.1551E+00  0.9446E-01
      2.945  0.1378E+00  0.8354E-01  0.1656E+00  0.1009E+00
      3.022  0.1363E+00  0.8943E-01  0.1761E+00  0.1077E+00
      3.099  0.1369E+00  0.9478E-01  0.1866E+00  0.1150E+00
      3.176  0.1389E+00  0.9886E-01  0.1973E+00  0.1226E+00
      3.252  0.1421E+00  0.1017E+00  0.2082E+00  0.1304E+00
      3.329  0.1446E+00  0.1044E+00  0.2193E+00  0.1384E+00
      3.406  0.1424E+00  0.1082E+00  0.2302E+00  0.1467E+00
      3.483  0.1338E+00  0.1123E+00  0.2405E+00  0.1553E+00
      3.559  0.1220E+00  0.1143E+00  0.2499E+00  0.1641E+00
      3.636  0.1155E+00  0.1134E+00  0.2587E+00  0.1728E+00
      3.713  0.1211E+00  0.1119E+00  0.2680E+00  0.1814E+00
      3.790  0.1366E+00  0.1124E+00  0.2785E+00  0.1901E+00
      3.867  0.1534E+00  0.1161E+00  0.2903E+00  0.1990E+00
      3.943  0.1653E+00  0.1227E+00  0.3030E+00  0.2084E+00
      4.020  0.1726E+00  0.1316E+00  0.3162E+00  0.2185E+00
      4.097  0.1780E+00  0.1388E+00  0.3299E+00  0.2292E+00
      4.174  0.1840E+00  0.1385E+00  0.3440E+00  0.2398E+00
      4.250  0.1913E+00  0.1305E+00  0.3587E+00  0.2498E+00
      4.327  0.1987E+00  0.1229E+00  0.3740E+00  0.2592E+00
      4.404  0.2035E+00  0.1239E+00  0.3896E+00  0.2688E+00
      4.481  0.2049E+00  0.1336E+00  0.4053E+00  0.2790E+00
      4.558  0.2059E+00  0.1458E+00  0.4211E+00  0.2902E+00
      4.634  0.2096E+00  0.1546E+00  0.4372E+00  0.3021E+00
      4.711  0.2142E+00  0.1585E+00  0.4537E+00  0.3142E+00
      4.788  0.2141E+00  0.1593E+00  0.4701E+00  0.3265E+00
      4.865  0.2063E+00  0.1596E+00  0.4860E+00  0.3387E+00
      4.941  0.1954E+00  0.1606E+00  0.5010E+00  0.3511E+00
      5.018  0.1885E+00  0.1630E+00  0.5154E+00  0.3636E+00
      5.095  0.1884E+00  0.1666E+00  0.5299E+00  0.3764E+00
      5.172  0.1909E+00  0.1692E+00  0.5446E+00  0.3894E+00
      5.249  0.1894E+00  0.1681E+00  0.5591E+00  0.4023E+00
      5.325  0.1811E+00  0.1629E+00  0.5730E+00  0.4148E+00
      5.402  0.1695E+00  0.1565E+00  0.5860E+00  0.4268E+00
      5.479  0.1603E+00  0.1529E+00  0.5983E+00  0.4385E+00
      5.556  0.1566E+00  0.1533E+00  0.6103E+00  0.4503E+00
      5.632  0.1578E+00  0.1554E+00  0.6225E+00  0.4622E+00
      5.709  0.1603E+00  0.1562E+00  0.6348E+00  0.4742E+00
      5.786  0.1602E+00  0.1550E+00  0.6471E+00  0.4861E+00
      5.863  0.1583E+00  0.1534E+00  0.6592E+00  0.4979E+00
      5.940  0.1597E+00  0.1527E+00  0.6715E+00  0.5096E+00
      6.016  0.1646E+00  0.1534E+00  0.6841E+00  0.5214E+00
      6.093  0.1657E+00  0.1540E+00  0.6968E+00  0.5332E+00
      6.170  0.1580E+00  0.1516E+00  0.7090E+00  0.5449E+00
      6.247  0.1455E+00  0.1448E+00  0.7201E+00  0.5560E+00
      6.323  0.1356E+00  0.1374E+00  0.7306E+00  0.5665E+00
      6.400  0.1303E+00  0.1342E+00  0.7406E+00  0.5768E+00
      6.477  0.1277E+00  0.1352E+00  0.7504E+00  0.5872E+00
      6.554  0.1268E+00  0.1348E+00  0.7601E+00  0.5976E+00
      6.631  0.1285E+00  0.1292E+00  0.7700E+00  0.6075E+00
      6.707  0.1322E+00  0.1220E+00  0.7801E+00  0.6168E+00
      6.784  0.1352E+00  0.1185E+00  0.7905E+00  0.6259E+00
      6.861  0.1371E+00  0.1180E+00  0.8010E+00  0.6350E+00
      6.938  0.1395E+00  0.1186E+00  0.8117E+00  0.6441E+00
      7.014  0.1414E+00  0.1238E+00  0.8226E+00  0.6536E+00
      7.091  0.1370E+00  0.1357E+00  0.8331E+00  0.6640E+00
      7.168  0.1209E+00  0.1465E+00  0.8424E+00  0.6753E+00
      7.245  0.9566E-01  0.1459E+00  0.8497E+00  0.6865E+00
      7.321  0.6942E-01  0.1344E+00  0.8551E+00  0.6968E+00
      7.398  0.4935E-01  0.1219E+00  0.8588E+00  0.7062E+00
      7.475  0.3818E-01  0.1166E+00  0.8618E+00  0.7151E+00
      7.552  0.3476E-01  0.1203E+00  0.8644E+00  0.7244E+00
      7.629  0.3447E-01  0.1314E+00  0.8671E+00  0.7344E+00
      7.705  0.3251E-01  0.1477E+00  0.8696E+00  0.7458E+00
      7.782  0.2833E-01  0.1629E+00  0.8718E+00  0.7583E+00
      7.859  0.2452E-01  0.1682E+00  0.8736E+00  0.7712E+00
      7.936  0.2265E-01  0.1627E+00  0.8754E+00  0.7837E+00
      8.012  0.2223E-01  0.1568E+00  0.8771E+00  0.7957E+00
      8.089  0.2271E-01  0.1587E+00  0.8788E+00  0.8079E+00
      8.166  0.2462E-01  0.1646E+00  0.8807E+00  0.8206E+00
      8.243  0.2744E-01  0.1632E+00  0.8828E+00  0.8331E+00
      8.320  0.2880E-01  0.1470E+00  0.8850E+00  0.8444E+00
      8.396  0.2801E-01  0.1174E+00  0.8872E+00  0.8534E+00
      8.473  0.2743E-01  0.8314E-01  0.8893E+00  0.8598E+00
      8.550  0.2808E-01  0.5526E-01  0.8915E+00  0.8640E+00
      8.627  0.2771E-01  0.3909E-01  0.8936E+00  0.8670E+00
      8.703  0.2501E-01  0.3251E-01  0.8955E+00  0.8695E+00
      8.780  0.2202E-01  0.3185E-01  0.8972E+00  0.8720E+00
      8.857  0.2107E-01  0.3471E-01  0.8988E+00  0.8746E+00
      8.934  0.2173E-01  0.3736E-01  0.9005E+00  0.8775E+00
      9.011  0.2207E-01  0.3623E-01  0.9022E+00  0.8803E+00
      9.087  0.2106E-01  0.3212E-01  0.9038E+00  0.8827E+00
      9.164  0.1959E-01  0.2885E-01  0.9053E+00  0.8850E+00
      9.241  0.1944E-01  0.2856E-01  0.9068E+00  0.8871E+00
      9.318  0.2085E-01  0.3048E-01  0.9084E+00  0.8895E+00
      9.394  0.2192E-01  0.3275E-01  0.9101E+00  0.8920E+00
      9.471  0.2129E-01  0.3371E-01  0.9117E+00  0.8946E+00
      9.548  0.1980E-01  0.3277E-01  0.9132E+00  0.8971E+00
      9.625  0.1949E-01  0.3078E-01  0.9147E+00  0.8995E+00
      9.702  0.2170E-01  0.2839E-01  0.9164E+00  0.9016E+00
      9.778  0.2545E-01  0.2552E-01  0.9183E+00  0.9036E+00
      9.855  0.2820E-01  0.2319E-01  0.9205E+00  0.9054E+00
      9.932  0.2846E-01  0.2310E-01  0.9227E+00  0.9072E+00
     10.009  0.2706E-01  0.2433E-01  0.9248E+00  0.9090E+00
     10.085  0.2580E-01  0.2396E-01  0.9268E+00  0.9109E+00
     10.162  0.2494E-01  0.2130E-01  0.9287E+00  0.9125E+00
     10.239  0.2293E-01  0.1916E-01  0.9304E+00  0.9140E+00
     10.316  0.1924E-01  0.2043E-01  0.9319E+00  0.9155E+00
     10.393  0.1560E-01  0.2473E-01  0.9331E+00  0.9174E+00
     10.469  0.1361E-01  0.2904E-01  0.9342E+00  0.9197E+00
     10.546  0.1320E-01  0.3099E-01  0.9352E+00  0.9220E+00
     10.623  0.1369E-01  0.3039E-01  0.9362E+00  0.9244E+00
     10.700  0.1467E-01  0.2826E-01  0.9373E+00  0.9266E+00
     10.776  0.1572E-01  0.2559E-01  0.9385E+00  0.9285E+00
     10.853  0.1629E-01  0.2272E-01  0.9398E+00  0.9303E+00
     10.930  0.1605E-01  0.1977E-01  0.9410E+00  0.9318E+00
     11.007  0.1507E-01  0.1725E-01  0.9422E+00  0.9331E+00
     11.084  0.1357E-01  0.1580E-01  0.9432E+00  0.9343E+00
     11.160  0.1197E-01  0.1607E-01  0.9441E+00  0.9355E+00
     11.237  0.1103E-01  0.1805E-01  0.9450E+00  0.9369E+00
     11.314  0.1149E-01  0.1968E-01  0.9459E+00  0.9384E+00
     11.391  0.1300E-01  0.1855E-01  0.9469E+00  0.9399E+00
     11.467  0.1454E-01  0.1571E-01  0.9480E+00  0.9411E+00
     11.544  0.1589E-01  0.1430E-01  0.9492E+00  0.9422E+00
     11.621  0.1750E-01  0.1441E-01  0.9506E+00  0.9433E+00
     11.698  0.1891E-01  0.1350E-01  0.9520E+00  0.9443E+00
     11.775  0.1850E-01  0.1142E-01  0.9534E+00  0.9452E+00
     11.851  0.1568E-01  0.1094E-01  0.9546E+00  0.9460E+00
     11.928  0.1244E-01  0.1327E-01  0.9556E+00  0.9471E+00
     12.005  0.1147E-01  0.1638E-01  0.9565E+00  0.9483E+00
     12.082  0.1295E-01  0.1817E-01  0.9575E+00  0.9497E+00
     12.158  0.1439E-01  0.1873E-01  0.9586E+00  0.9511E+00
     12.235  0.1410E-01  0.1878E-01  0.9596E+00  0.9526E+00
     12.312  0.1313E-01  0.1802E-01  0.9607E+00  0.9540E+00
     12.389  0.1276E-01  0.1615E-01  0.9616E+00  0.9552E+00
     12.465  0.1234E-01  0.1421E-01  0.9626E+00  0.9563E+00
     12.542  0.1055E-01  0.1337E-01  0.9634E+00  0.9573E+00
     12.619  0.7354E-02  0.1343E-01  0.9640E+00  0.9584E+00
     12.696  0.3965E-02  0.1350E-01  0.9643E+00  0.9594E+00
     12.773  0.2071E-02  0.1355E-01  0.9644E+00  0.9604E+00
     12.849  0.2896E-02  0.1399E-01  0.9646E+00  0.9615E+00
     12.926  0.6676E-02  0.1400E-01  0.9652E+00  0.9626E+00
     13.003  0.1257E-01  0.1191E-01  0.9661E+00  0.9635E+00
     13.080  0.1846E-01  0.7565E-02  0.9675E+00  0.9641E+00
     13.156  0.2132E-01  0.3317E-02  0.9692E+00  0.9643E+00
     13.233  0.1965E-01  0.1840E-02  0.9707E+00  0.9645E+00
     13.310  0.1620E-01  0.3625E-02  0.9719E+00  0.9648E+00
     13.387  0.1561E-01  0.6841E-02  0.9731E+00  0.9653E+00
     13.464  0.1943E-01  0.9295E-02  0.9746E+00  0.9660E+00
     13.540  0.2548E-01  0.1078E-01  0.9766E+00  0.9668E+00
     13.617  0.3115E-01  0.1317E-01  0.9790E+00  0.9678E+00
     13.694  0.3498E-01  0.1733E-01  0.9817E+00  0.9692E+00
     13.771  0.3644E-01  0.2108E-01  0.9845E+00  0.9708E+00
     13.847  0.3580E-01  0.2215E-01  0.9872E+00  0.9725E+00
     13.924  0.3375E-01  0.2226E-01  0.9898E+00  0.9742E+00
     14.001  0.3096E-01  0.2528E-01  0.9922E+00  0.9761E+00
     14.078  0.2802E-01  0.3143E-01  0.9943E+00  0.9785E+00
     14.155  0.2531E-01  0.3638E-01  0.9963E+00  0.9813E+00
     14.231  0.2298E-01  0.3678E-01  0.9980E+00  0.9842E+00
     14.308  0.2154E-01  0.3414E-01  0.9997E+00  0.9868E+00
     14.385  0.2176E-01  0.3186E-01  0.1001E+01  0.9892E+00
     14.462  0.2292E-01  0.3077E-01  0.1003E+01  0.9916E+00
     14.538  0.2275E-01  0.2929E-01  0.1005E+01  0.9938E+00
     14.615  0.2079E-01  0.2665E-01  0.1006E+01  0.9959E+00
     14.692  0.1954E-01  0.2395E-01  0.1008E+01  0.9977E+00
     14.769  0.2070E-01  0.2209E-01  0.1010E+01  0.9994E+00
     14.846  0.2228E-01  0.2116E-01  0.1011E+01  0.1001E+01
     14.922  0.2120E-01  0.2162E-01  0.1013E+01  0.1003E+01
     14.999  0.1728E-01  0.2326E-01  0.1014E+01  0.1004E+01
     15.076  0.1337E-01  0.2440E-01  0.1015E+01  0.1006E+01
     15.153  0.1191E-01  0.2420E-01  0.1016E+01  0.1008E+01
     15.229  0.1226E-01  0.2367E-01  0.1017E+01  0.1010E+01
     15.306  0.1191E-01  0.2284E-01  0.1018E+01  0.1012E+01
     15.383  0.1024E-01  0.2023E-01  0.1019E+01  0.1013E+01
     15.460  0.9265E-02  0.1599E-01  0.1019E+01  0.1015E+01
     15.537  0.1028E-01  0.1254E-01  0.1020E+01  0.1016E+01
     15.613  0.1184E-01  0.1142E-01  0.1021E+01  0.1016E+01
     15.690  0.1184E-01  0.1172E-01  0.1022E+01  0.1017E+01
     15.767  0.1011E-01  0.1204E-01  0.1023E+01  0.1018E+01
     15.844  0.8231E-02  0.1222E-01  0.1024E+01  0.1019E+01
     15.920  0.7369E-02  0.1244E-01  0.1024E+01  0.1020E+01
     15.997  0.7214E-02  0.1215E-01  0.1025E+01  0.1021E+01
     16.074  0.7524E-02  0.1092E-01  0.1025E+01  0.1022E+01
     16.151  0.8919E-02  0.9042E-02  0.1026E+01  0.1023E+01
     16.228  0.1090E-01  0.7207E-02  0.1027E+01  0.1023E+01
     16.304  0.1148E-01  0.6394E-02  0.1028E+01  0.1024E+01
     16.381  0.9941E-02  0.7431E-02  0.1028E+01  0.1024E+01
     16.458  0.7636E-02  0.9815E-02  0.1029E+01  0.1025E+01
     16.535  0.5862E-02  0.1176E-01  0.1029E+01  0.1026E+01
     16.611  0.4630E-02  0.1182E-01  0.1030E+01  0.1027E+01
     16.688  0.3456E-02  0.1016E-01  0.1030E+01  0.1028E+01
     16.765  0.2235E-02  0.8212E-02  0.1030E+01  0.1028E+01
     16.842  0.1143E-02  0.7160E-02  0.1030E+01  0.1029E+01
     16.919  0.3587E-03  0.6819E-02  0.1030E+01  0.1029E+01
     16.995 -0.3214E-04  0.6158E-02  0.1030E+01  0.1030E+01
     17.072 -0.1131E-03  0.4589E-02  0.1030E+01  0.1030E+01
     17.149 -0.6916E-04  0.2517E-02  0.1030E+01  0.1030E+01
     17.226 -0.2469E-04  0.8137E-03  0.1030E+01  0.1030E+01
     17.302 -0.5887E-05 -0.3870E-04  0.1030E+01  0.1030E+01
     17.379 -0.9809E-06 -0.2134E-03  0.1030E+01  0.1030E+01
     17.456 -0.1167E-06 -0.1316E-03  0.1030E+01  0.1030E+01
     17.533 -0.1004E-07 -0.4758E-04  0.1030E+01  0.1030E+01
     17.609 -0.6290E-09 -0.1166E-04  0.1030E+01  0.1030E+01
     17.686 -0.2887E-10 -0.2025E-05  0.1030E+01  0.1030E+01
     17.763 -0.9737E-12 -0.2541E-06  0.1030E+01  0.1030E+01
     17.840 -0.2421E-13 -0.2325E-07  0.1030E+01  0.1030E+01
     17.917 -0.4440E-15 -0.1560E-08  0.1030E+01  0.1030E+01
     17.993 -0.5843E-17 -0.7708E-10  0.1030E+01  0.1030E+01
     18.070  0.0000E+00 -0.2809E-11  0.1030E+01  0.1030E+01
     18.147  0.0000E+00 -0.7563E-13  0.1030E+01  0.1030E+01
     18.224  0.0000E+00 -0.1507E-14  0.1030E+01  0.1030E+01
     18.300  0.0000E+00 -0.2142E-16  0.1030E+01  0.1030E+01
     18.377  0.0000E+00  0.0000E+00  0.1030E+01  0.1030E+01
     18.454  0.0000E+00  0.0000E+00  0.1030E+01  0.1030E+01
     18.531  0.0000E+00  0.0000E+00  0.1030E+01  0.1030E+01
     18.608  0.0000E+00  0.0000E+00  0.1030E+01  0.1030E+01
     18.684  0.0000E+00  0.0000E+00  0.1030E+01  0.1030E+01
     18.761  0.0000E+00  0.0000E+00  0.1030E+01  0.1030E+01
     18.838  0.0000E+00  0.0000E+00  0.1030E+01  0.1030E+01
     18.915  0.0000E+00  0.0000E+00  0.1030E+01  0.1030E+01
     18.991  0.0000E+00  0.0000E+00  0.1030E+01  0.1030E+01
     19.068  0.0000E+00  0.0000E+00  0.1030E+01  0.1030E+01
     19.06824152     -3.96460501  301      6.61598235      1.00000000
     -3.965  0.0000E+00  0.0000E+00  0.0000E+00  0.0000E+00  0.0000E+00  0.0000E+00
     -3.888  0.0000E+00  0.0000E+00  0.0000E+00  0.0000E+00  0.0000E+00  0.0000E+00
     -3.811  0.0000E+00  0.0000E+00  0.0000E+00  0.0000E+00  0.0000E+00  0.0000E+00
     -3.734  0.0000E+00  0.0000E+00  0.0000E+00  0.0000E+00  0.0000E+00  0.0000E+00
     -3.658  0.0000E+00  0.0000E+00  0.0000E+00  0.0000E+00  0.0000E+00  0.0000E+00
     -3.581 -0.1049E-29  0.0000E+00 -0.1321E-33  0.0000E+00 -0.1052E-33  0.0000E+00
     -3.504 -0.4254E-27 -0.1682E-29 -0.5357E-31 -0.1051E-32 -0.4266E-31 -0.3435E-33
     -3.427 -0.1284E-24 -0.6687E-27 -0.1617E-28 -0.4180E-30 -0.1288E-28 -0.1365E-30
     -3.350 -0.2877E-22 -0.1978E-24 -0.3623E-26 -0.1237E-27 -0.2885E-26 -0.4039E-28
     -3.274 -0.4785E-20 -0.4345E-22 -0.6026E-24 -0.2716E-25 -0.4799E-24 -0.8872E-26
     -3.197 -0.5903E-18 -0.7082E-20 -0.7434E-22 -0.4427E-23 -0.5920E-22 -0.1446E-23
     -3.120 -0.5224E-16 -0.8562E-18 -0.6578E-20 -0.5352E-21 -0.5239E-20 -0.1748E-21
     -3.043 -0.3533E-14 -0.7427E-16 -0.4449E-18 -0.4643E-19 -0.3543E-18 -0.1517E-19
     -2.967 -0.1761E-12 -0.4919E-14 -0.2218E-16 -0.3075E-17 -0.1766E-16 -0.1005E-17
     -2.890 -0.6477E-11 -0.2402E-12 -0.8156E-15 -0.1502E-15 -0.6495E-15 -0.4905E-16
     -2.813 -0.1754E-09 -0.8655E-11 -0.2208E-13 -0.5411E-14 -0.1759E-13 -0.1767E-14
     -2.736 -0.3484E-08 -0.2295E-09 -0.4389E-12 -0.1435E-12 -0.3494E-12 -0.4687E-13
     -2.659 -0.5056E-07 -0.4465E-08 -0.6374E-11 -0.2792E-11 -0.5070E-11 -0.9119E-12
     -2.583 -0.5320E-06 -0.6342E-07 -0.6729E-10 -0.3966E-10 -0.5337E-10 -0.1295E-10
     -2.506 -0.4014E-05 -0.6529E-06 -0.5144E-09 -0.4086E-09 -0.4028E-09 -0.1333E-09
     -2.429 -0.2127E-04 -0.4814E-05 -0.2877E-08 -0.3021E-08 -0.2140E-08 -0.9835E-09
     -2.352 -0.7596E-04 -0.2488E-04 -0.1278E-07 -0.1582E-07 -0.7727E-08 -0.5092E-08
     -2.276 -0.1635E-03 -0.8630E-04 -0.5867E-07 -0.5804E-07 -0.1767E-07 -0.1779E-07
     -2.199 -0.1143E-03 -0.1780E-03 -0.3399E-06 -0.1582E-06 -0.2221E-07 -0.3817E-07
     -2.122  0.4376E-03 -0.1037E-03 -0.1923E-05 -0.4543E-06 -0.2035E-07 -0.3597E-07
     -2.045  0.1538E-02  0.5245E-03 -0.8106E-05 -0.1965E-05 -0.1105E-06  0.2231E-07
     -1.968  0.2329E-02  0.1698E-02 -0.2220E-04 -0.8232E-05 -0.4703E-06  0.1333E-07
     -1.892  0.2149E-02  0.2463E-02 -0.3098E-04 -0.2261E-04 -0.7440E-06 -0.3303E-06
     -1.815  0.2782E-02  0.2264E-02  0.1684E-04 -0.2943E-04  0.7412E-06 -0.5310E-06
     -1.738  0.7260E-02  0.3230E-02  0.1749E-03  0.2699E-04  0.5647E-05  0.1613E-05
     -1.661  0.1467E-01  0.8430E-02  0.4005E-03  0.1983E-03  0.1246E-04  0.8001E-05
     -1.585  0.1975E-01  0.1635E-01  0.5751E-03  0.4308E-03  0.1798E-04  0.1628E-04
     -1.508  0.2041E-01  0.2132E-01  0.6918E-03  0.6041E-03  0.2378E-04  0.2243E-04
     -1.431  0.2047E-01  0.2181E-01  0.8695E-03  0.7273E-03  0.3589E-04  0.2879E-04
     -1.354  0.2280E-01  0.2223E-01  0.1157E-02  0.9287E-03  0.5892E-04  0.4254E-04
     -1.277  0.2661E-01  0.2528E-01  0.1526E-02  0.1248E-02  0.9552E-04  0.6789E-04
     -1.201  0.3042E-01  0.2968E-01  0.1940E-02  0.1645E-02  0.1413E-03  0.1056E-03
     -1.124  0.3182E-01  0.3359E-01  0.2203E-02  0.2064E-02  0.1733E-03  0.1496E-03
     -1.047  0.2734E-01  0.3440E-01  0.1989E-02  0.2298E-02  0.1594E-03  0.1770E-03
     -0.970  0.1702E-01  0.2885E-01  0.1245E-02  0.2031E-02  0.9557E-04  0.1584E-03
     -0.894  0.7132E-02  0.1759E-01  0.4966E-03  0.1244E-02  0.3593E-04  0.9416E-04
     -0.817  0.5813E-02  0.7610E-02  0.5479E-03  0.4769E-03  0.7033E-04  0.4024E-04
     -0.740  0.1558E-01  0.6879E-02  0.1795E-02  0.5007E-03  0.2506E-03  0.7762E-04
     -0.663  0.3075E-01  0.1689E-01  0.3762E-02  0.1696E-02  0.5270E-03  0.2445E-03
     -0.586  0.4185E-01  0.3173E-01  0.5318E-02  0.3671E-02  0.7578E-03  0.4982E-03
     -0.510  0.4280E-01  0.4303E-01  0.5586E-02  0.5373E-02  0.8243E-03  0.7255E-03
     -0.433  0.3702E-01  0.4497E-01  0.5021E-02  0.5802E-02  0.8242E-03  0.8102E-03
     -0.356  0.3672E-01  0.3954E-01  0.5411E-02  0.5190E-02  0.1096E-02  0.8027E-03
     -0.279  0.4995E-01  0.3831E-01  0.7906E-02  0.5374E-02  0.1819E-02  0.1016E-02
     -0.203  0.6673E-01  0.5093E-01  0.1091E-01  0.7916E-02  0.2560E-02  0.1690E-02
     -0.126  0.6716E-01  0.6863E-01  0.1124E-01  0.1146E-01  0.2595E-02  0.2483E-02
     -0.049  0.4635E-01  0.7032E-01  0.8021E-02  0.1245E-01  0.1802E-02  0.2650E-02
      0.028  0.2130E-01  0.4927E-01  0.3979E-02  0.9336E-02  0.8907E-03  0.1936E-02
      0.105  0.1051E-01  0.2227E-01  0.2284E-02  0.4715E-02  0.6227E-03  0.9645E-03
      0.181  0.1642E-01  0.9338E-02  0.3508E-02  0.2319E-02  0.1124E-02  0.5690E-03
      0.258  0.2867E-01  0.1443E-01  0.5921E-02  0.3260E-02  0.1962E-02  0.9870E-03
      0.335  0.3616E-01  0.2719E-01  0.7491E-02  0.5766E-02  0.2589E-02  0.1788E-02
      0.412  0.3546E-01  0.3565E-01  0.7466E-02  0.7498E-02  0.2782E-02  0.2385E-02
      0.488  0.3206E-01  0.3561E-01  0.6945E-02  0.7521E-02  0.2970E-02  0.2523E-02
      0.565  0.3506E-01  0.3104E-01  0.8182E-02  0.6640E-02  0.4128E-02  0.2428E-02
      0.642  0.4836E-01  0.2944E-01  0.1243E-01  0.6767E-02  0.6792E-02  0.2816E-02
      0.719  0.6389E-01  0.3730E-01  0.1751E-01  0.9852E-02  0.9791E-02  0.4616E-02
      0.796  0.6716E-01  0.5385E-01  0.1896E-01  0.1568E-01  0.1087E-01  0.7837E-02
      0.872  0.5463E-01  0.6706E-01  0.1542E-01  0.2045E-01  0.9391E-02  0.1062E-01
      0.949  0.4063E-01  0.6453E-01  0.1128E-01  0.2005E-01  0.7695E-02  0.1088E-01
      1.026  0.4199E-01  0.5007E-01  0.1221E-01  0.1549E-01  0.8965E-02  0.9135E-02
      1.103  0.5974E-01  0.4077E-01  0.1905E-01  0.1236E-01  0.1403E-01  0.8236E-02
      1.179  0.7872E-01  0.4695E-01  0.2696E-01  0.1464E-01  0.2036E-01  0.1017E-01
      1.256  0.8246E-01  0.6279E-01  0.2995E-01  0.2110E-01  0.2407E-01  0.1448E-01
      1.333  0.6776E-01  0.7594E-01  0.2621E-01  0.2738E-01  0.2329E-01  0.1941E-01
      1.410  0.4615E-01  0.7813E-01  0.1928E-01  0.2966E-01  0.1971E-01  0.2292E-01
      1.487  0.3167E-01  0.6808E-01  0.1438E-01  0.2688E-01  0.1688E-01  0.2336E-01
      1.563  0.3004E-01  0.5210E-01  0.1415E-01  0.2151E-01  0.1818E-01  0.2123E-01
      1.640  0.3914E-01  0.4004E-01  0.1770E-01  0.1721E-01  0.2774E-01  0.1935E-01
      1.717  0.5448E-01  0.3679E-01  0.2270E-01  0.1502E-01  0.5110E-01  0.2023E-01
      1.794  0.7156E-01  0.4028E-01  0.2780E-01  0.1369E-01  0.9164E-01  0.2398E-01
      1.870  0.8642E-01  0.4709E-01  0.3312E-01  0.1343E-01  0.1452E+00  0.2984E-01
      1.947  0.9659E-01  0.5669E-01  0.3879E-01  0.1637E-01  0.1990E+00  0.3910E-01
      2.024  0.1006E+00  0.7066E-01  0.4311E-01  0.2298E-01  0.2374E+00  0.5546E-01
      2.101  0.9695E-01  0.8786E-01  0.4371E-01  0.3049E-01  0.2512E+00  0.8167E-01
      2.177  0.8661E-01  0.1019E+00  0.4091E-01  0.3582E-01  0.2471E+00  0.1180E+00
      2.254  0.7458E-01  0.1064E+00  0.3762E-01  0.3899E-01  0.2436E+00  0.1673E+00
      2.331  0.6607E-01  0.1013E+00  0.3589E-01  0.4231E-01  0.2552E+00  0.2337E+00
      2.408  0.6204E-01  0.9073E-01  0.3557E-01  0.4609E-01  0.2834E+00  0.3096E+00
      2.485  0.5954E-01  0.7679E-01  0.3606E-01  0.4758E-01  0.3269E+00  0.3746E+00
      2.561  0.5587E-01  0.6088E-01  0.3769E-01  0.4539E-01  0.3915E+00  0.4159E+00
      2.638  0.5098E-01  0.4658E-01  0.4063E-01  0.4204E-01  0.4751E+00  0.4355E+00
      2.715  0.4547E-01  0.3749E-01  0.4336E-01  0.4107E-01  0.5517E+00  0.4381E+00
      2.792  0.3901E-01  0.3303E-01  0.4389E-01  0.4373E-01  0.5962E+00  0.4337E+00
      2.868  0.3181E-01  0.2959E-01  0.4232E-01  0.4898E-01  0.6166E+00  0.4425E+00
      2.945  0.2528E-01  0.2544E-01  0.4105E-01  0.5478E-01  0.6387E+00  0.4744E+00
      3.022  0.2062E-01  0.2201E-01  0.4242E-01  0.5931E-01  0.6700E+00  0.5157E+00
      3.099  0.1771E-01  0.2078E-01  0.4706E-01  0.6168E-01  0.7033E+00  0.5474E+00
      3.176  0.1568E-01  0.2116E-01  0.5348E-01  0.6106E-01  0.7443E+00  0.5633E+00
      3.252  0.1391E-01  0.2165E-01  0.5833E-01  0.5656E-01  0.8021E+00  0.5723E+00
      3.329  0.1204E-01  0.2216E-01  0.5846E-01  0.4973E-01  0.8611E+00  0.5942E+00
      3.406  0.9818E-02  0.2396E-01  0.5382E-01  0.4404E-01  0.8879E+00  0.6439E+00
      3.483  0.7406E-02  0.2703E-01  0.4738E-01  0.4097E-01  0.8619E+00  0.7087E+00
      3.559  0.5370E-02  0.2895E-01  0.4270E-01  0.3944E-01  0.7978E+00  0.7540E+00
      3.636  0.4324E-02  0.2741E-01  0.4239E-01  0.3874E-01  0.7497E+00  0.7557E+00
      3.713  0.4535E-02  0.2318E-01  0.4687E-01  0.3936E-01  0.7731E+00  0.7277E+00
      3.790  0.5819E-02  0.1913E-01  0.5378E-01  0.4122E-01  0.8727E+00  0.7070E+00
      3.867  0.7775E-02  0.1676E-01  0.5973E-01  0.4329E-01  0.9970E+00  0.7173E+00
      3.943  0.1002E-01  0.1533E-01  0.6344E-01  0.4557E-01  0.1086E+01  0.7626E+00
      4.020  0.1221E-01  0.1402E-01  0.6595E-01  0.4925E-01  0.1117E+01  0.8379E+00
      4.097  0.1400E-01  0.1287E-01  0.6811E-01  0.5357E-01  0.1122E+01  0.9223E+00
      4.174  0.1524E-01  0.1185E-01  0.6946E-01  0.5533E-01  0.1147E+01  0.9878E+00
      4.250  0.1605E-01  0.1073E-01  0.6960E-01  0.5338E-01  0.1204E+01  0.1036E+01
      4.327  0.1647E-01  0.9850E-02  0.6889E-01  0.5118E-01  0.1259E+01  0.1106E+01
      4.404  0.1628E-01  0.1001E-01  0.6730E-01  0.5250E-01  0.1281E+01  0.1235E+01
      4.481  0.1536E-01  0.1144E-01  0.6439E-01  0.5669E-01  0.1284E+01  0.1418E+01
      4.558  0.1414E-01  0.1328E-01  0.6082E-01  0.6070E-01  0.1314E+01  0.1607E+01
      4.634  0.1339E-01  0.1417E-01  0.5814E-01  0.6336E-01  0.1393E+01  0.1728E+01
      4.711  0.1329E-01  0.1343E-01  0.5685E-01  0.6517E-01  0.1479E+01  0.1739E+01
      4.788  0.1327E-01  0.1163E-01  0.5598E-01  0.6649E-01  0.1505E+01  0.1661E+01
      4.865  0.1293E-01  0.9971E-02  0.5453E-01  0.6755E-01  0.1448E+01  0.1552E+01
      4.941  0.1244E-01  0.9138E-02  0.5258E-01  0.6871E-01  0.1365E+01  0.1469E+01
      5.018  0.1209E-01  0.9105E-02  0.5115E-01  0.7013E-01  0.1341E+01  0.1446E+01
      5.095  0.1173E-01  0.9638E-02  0.5107E-01  0.7208E-01  0.1398E+01  0.1470E+01
      5.172  0.1099E-01  0.1042E-01  0.5184E-01  0.7448E-01  0.1464E+01  0.1473E+01
      5.249  0.9964E-02  0.1098E-01  0.5194E-01  0.7560E-01  0.1461E+01  0.1409E+01
      5.325  0.9142E-02  0.1101E-01  0.5001E-01  0.7300E-01  0.1385E+01  0.1298E+01
      5.402  0.8777E-02  0.1083E-01  0.4556E-01  0.6685E-01  0.1293E+01  0.1194E+01
      5.479  0.8630E-02  0.1111E-01  0.3944E-01  0.6079E-01  0.1238E+01  0.1130E+01
      5.556  0.8439E-02  0.1196E-01  0.3399E-01  0.5801E-01  0.1222E+01  0.1105E+01
      5.632  0.8339E-02  0.1258E-01  0.3136E-01  0.5728E-01  0.1220E+01  0.1102E+01
      5.709  0.8450E-02  0.1214E-01  0.3107E-01  0.5486E-01  0.1202E+01  0.1099E+01
      5.786  0.8368E-02  0.1075E-01  0.3061E-01  0.4984E-01  0.1146E+01  0.1083E+01
      5.863  0.7757E-02  0.9203E-02  0.2900E-01  0.4497E-01  0.1060E+01  0.1045E+01
      5.940  0.7160E-02  0.8208E-02  0.2788E-01  0.4242E-01  0.9884E+00  0.9860E+00
      6.016  0.7366E-02  0.7919E-02  0.2833E-01  0.4161E-01  0.9496E+00  0.9159E+00
      6.093  0.8264E-02  0.8091E-02  0.2903E-01  0.4114E-01  0.9103E+00  0.8420E+00
      6.170  0.9130E-02  0.8276E-02  0.2839E-01  0.4027E-01  0.8336E+00  0.7622E+00
      6.247  0.9509E-02  0.7992E-02  0.2662E-01  0.3849E-01  0.7268E+00  0.6858E+00
      6.323  0.9224E-02  0.7106E-02  0.2478E-01  0.3567E-01  0.6235E+00  0.6408E+00
      6.400  0.8277E-02  0.6035E-02  0.2329E-01  0.3264E-01  0.5447E+00  0.6393E+00
      6.477  0.7153E-02  0.5294E-02  0.2178E-01  0.3024E-01  0.4919E+00  0.6539E+00
      6.554  0.6582E-02  0.5003E-02  0.1988E-01  0.2809E-01  0.4592E+00  0.6488E+00