       N       E                     dE             d eps       ncg     rms          rms(c)
DAV:   1     0.120556999881E+04    0.12056E+04   -0.55948E+04 12747   0.181E+03
DAV:   2     0.435882064138E+01   -0.12012E+04   -0.11308E+04 12648   0.384E+02
DAV:   3    -0.129645988011E+03   -0.13400E+03   -0.10942E+03 12648   0.169E+02
DAV:   4    -0.134585853524E+03   -0.49399E+01   -0.48229E+01 13905   0.390E+01
DAV:   5    -0.134644997072E+03   -0.59144E-01   -0.59084E-01 14637   0.399E+00    0.452E+01
RMM:   6    -0.147249641702E+03   -0.12605E+02   -0.17160E+02 12648   0.762E+01    0.711E+01
RMM:   7    -0.145029023602E+03    0.22206E+01   -0.41771E+01 12648   0.340E+01    0.727E+01
RMM:   8    -0.137560186317E+03    0.74688E+01   -0.28089E+01 12648   0.280E+01    0.729E+01
RMM:   9    -0.119268632502E+03    0.18292E+02   -0.17994E+01 12648   0.225E+01    0.196E+01
RMM:  10    -0.124548417711E+03   -0.52798E+01   -0.54666E+00 12648   0.121E+01    0.411E+01
RMM:  11    -0.118323480891E+03    0.62249E+01   -0.30583E+00 12648   0.952E+00    0.110E+01
RMM:  12    -0.118674779730E+03   -0.35130E+00   -0.62902E-01 12648   0.394E+00    0.143E+01
RMM:  13    -0.117959833000E+03    0.71495E+00   -0.29726E-01 12648   0.287E+00    0.597E+00
RMM:  14    -0.118118783059E+03   -0.15895E+00   -0.12934E-01 12648   0.162E+00    0.701E+00
RMM:  15    -0.118091697908E+03    0.27085E-01   -0.66011E-02 12648   0.127E+00    0.508E+00
RMM:  16    -0.118133544179E+03   -0.41846E-01   -0.21208E-02 12648   0.666E-01    0.533E+00
RMM:  17    -0.118169449141E+03   -0.35905E-01   -0.99808E-03 12648   0.454E-01    0.527E+00
RMM:  18    -0.118167515779E+03    0.19334E-02   -0.62393E-04 12648   0.985E-02    0.532E+00
RMM:  19    -0.118105169160E+03    0.62347E-01   -0.24750E-02 12648   0.754E-01    0.559E+00
RMM:  20    -0.118008038073E+03    0.97131E-01   -0.28027E-02 12648   0.805E-01    0.477E+00
RMM:  21    -0.117958659273E+03    0.49379E-01   -0.23522E-02 12648   0.714E-01    0.449E+00
RMM:  22    -0.117805854539E+03    0.15280E+00   -0.24654E-01 12648   0.204E+00    0.305E+00
RMM:  23    -0.117841399701E+03   -0.35545E-01   -0.17075E-02 12648   0.645E-01    0.230E+00
RMM:  24    -0.117868775817E+03   -0.27376E-01   -0.20157E-02 12648   0.714E-01    0.289E+00
RMM:  25    -0.117887530637E+03   -0.18755E-01   -0.41460E-02 12648   0.951E-01    0.225E+00
RMM:  26    -0.117882724432E+03    0.48062E-02   -0.25960E-02 12648   0.778E-01    0.157E+00
RMM:  27    -0.117899433326E+03   -0.16709E-01   -0.15766E-02 12648   0.568E-01    0.166E+00
RMM:  28    -0.117902158353E+03   -0.27250E-02   -0.11116E-02 12648   0.509E-01    0.157E+00
RMM:  29    -0.117910550359E+03   -0.83920E-02   -0.10843E-02 12648   0.449E-01    0.130E+00
RMM:  30    -0.117914343883E+03   -0.37935E-02   -0.22598E-03 12648   0.210E-01    0.140E+00
RMM:  31    -0.117916372664E+03   -0.20288E-02   -0.57299E-04 12648   0.101E-01    0.141E+00
RMM:  32    -0.117908292162E+03    0.80805E-02   -0.64655E-03 12648   0.369E-01    0.140E+00
RMM:  33    -0.117906936681E+03    0.13555E-02   -0.31542E-03 12648   0.274E-01    0.132E+00
RMM:  34    -0.117904750649E+03    0.21860E-02   -0.23065E-03 12648   0.224E-01    0.108E+00
RMM:  35    -0.117909365077E+03   -0.46144E-02   -0.13541E-03 12648   0.149E-01    0.121E+00
RMM:  36    -0.117908901729E+03    0.46335E-03   -0.54090E-05 10943   0.304E-02    0.121E+00
RMM:  37    -0.117908658339E+03    0.24339E-03   -0.50072E-06  6712   0.131E-02    0.120E+00
RMM:  38    -0.117910033471E+03   -0.13751E-02   -0.37280E-04 12648   0.867E-02    0.121E+00
RMM:  39    -0.117894271667E+03    0.15762E-01   -0.13273E-02 12648   0.506E-01    0.887E-01
RMM:  40    -0.117888770818E+03    0.55008E-02   -0.12320E-02 12648   0.439E-01    0.408E-01
RMM:  41    -0.117889416234E+03   -0.64542E-03   -0.25148E-03 12648   0.178E-01    0.240E-01
RMM:  42    -0.117890222281E+03   -0.80605E-03   -0.11115E-03 12648   0.143E-01    0.170E-01
RMM:  43    -0.117890147133E+03    0.75148E-04   -0.29493E-04 12648   0.747E-02    0.116E-01
RMM:  44    -0.117890202370E+03   -0.55237E-04   -0.51115E-05 11297   0.305E-02    0.116E-01
RMM:  45    -0.117890185464E+03    0.16907E-04   -0.26403E-06  6641   0.999E-03    0.114E-01
RMM:  46    -0.117890102434E+03    0.83030E-04   -0.13571E-04 12619   0.494E-02    0.932E-02
RMM:  47    -0.117890047884E+03    0.54550E-04   -0.10945E-04 12383   0.419E-02    0.561E-02
RMM:  48    -0.117890053092E+03   -0.52086E-05   -0.19749E-05  7664   0.172E-02
   1 F= -.11789005E+03 E0= -.11788416E+03  d E =-.117890E+03  mag=    19.2613
       N       E                     dE             d eps       ncg     rms          rms(c)
DAV:   1    -0.117897878996E+03   -0.78311E-02   -0.61936E+01 12684   0.227E+01    0.534E+00
RMM:   2    -0.125247225043E+03   -0.73493E+01   -0.40055E+00 12648   0.114E+01    0.404E+01
RMM:   3    -0.118233042129E+03    0.70142E+01   -0.17318E+00 12648   0.711E+00    0.573E+00
RMM:   4    -0.118324647808E+03   -0.91606E-01   -0.31941E-01 12648   0.276E+00    0.671E+00
RMM:   5    -0.118181243465E+03    0.14340E+00   -0.98262E-02 12648   0.167E+00    0.260E+00
RMM:   6    -0.118167249175E+03    0.13994E-01   -0.95615E-03 12648   0.473E-01    0.170E+00
RMM:   7    -0.118175770219E+03   -0.85210E-02   -0.29758E-03 12648   0.247E-01    0.197E+00
RMM:   8    -0.118176149289E+03   -0.37907E-03   -0.75258E-04 12648   0.127E-01    0.211E+00
RMM:   9    -0.118173076498E+03    0.30728E-02   -0.58455E-03 12648   0.363E-01    0.247E+00
RMM:  10    -0.118157080014E+03    0.15996E-01   -0.54919E-03 12648   0.361E-01    0.161E+00
RMM:  11    -0.118172347060E+03   -0.15267E-01   -0.10495E-02 12648   0.487E-01    0.288E+00
RMM:  12    -0.118155530921E+03    0.16816E-01   -0.15654E-02 12648   0.588E-01    0.185E+00
RMM:  13    -0.118154400404E+03    0.11305E-02   -0.39071E-03 12648   0.302E-01    0.170E+00
RMM:  14    -0.118154489601E+03   -0.89197E-04   -0.20641E-04 12648   0.507E-02    0.171E+00
RMM:  15    -0.118153900488E+03    0.58911E-03   -0.13143E-03 12648   0.170E-01    0.177E+00
RMM:  16    -0.118154578218E+03   -0.67773E-03   -0.13365E-02 12648   0.530E-01    0.209E+00
RMM:  17    -0.118151537104E+03    0.30411E-02   -0.13493E-02 12648   0.523E-01    0.239E+00
RMM:  18    -0.118153552665E+03   -0.20156E-02   -0.81372E-03 12648   0.391E-01    0.287E+00
RMM:  19    -0.118150199235E+03    0.33534E-02   -0.48521E-03 12648   0.305E-01    0.309E+00
RMM:  20    -0.118151960090E+03   -0.17609E-02   -0.76872E-04 12648   0.134E-01    0.312E+00
RMM:  21    -0.118150726696E+03    0.12334E-02   -0.47413E-04 12648   0.105E-01    0.311E+00
RMM:  22    -0.118148961462E+03    0.17652E-02   -0.12812E-04 12646   0.496E-02    0.310E+00
RMM:  23    -0.118146493743E+03    0.24677E-02   -0.18983E-03 12648   0.211E-01    0.324E+00
RMM:  24    -0.118119572095E+03    0.26922E-01   -0.24711E-02 12648   0.715E-01    0.392E+00
RMM:  25    -0.118133435847E+03   -0.13864E-01   -0.20306E-02 12648   0.598E-01    0.430E+00
RMM:  26    -0.118150676115E+03   -0.17240E-01   -0.42479E-03 12648   0.267E-01    0.439E+00
RMM:  27    -0.118189309177E+03   -0.38633E-01   -0.49235E-03 12648   0.302E-01    0.437E+00
RMM:  28    -0.118228127714E+03   -0.38819E-01   -0.72357E-03 12648   0.368E-01    0.438E+00
RMM:  29    -0.118244549593E+03   -0.16422E-01   -0.52474E-03 12648   0.339E-01    0.438E+00
RMM:  30    -0.118272442098E+03   -0.27893E-01   -0.14759E-02 12648   0.496E-01    0.423E+00
RMM:  31    -0.118284369180E+03   -0.11927E-01   -0.19029E-03 12648   0.183E-01    0.413E+00
RMM:  32    -0.118300637166E+03   -0.16268E-01   -0.24439E-03 12648   0.212E-01    0.395E+00
RMM:  33    -0.118301876259E+03   -0.12391E-02   -0.93644E-04 12648   0.122E-01    0.389E+00
RMM:  34    -0.118301518459E+03    0.35780E-03   -0.68672E-04 12648   0.114E-01    0.383E+00
RMM:  35    -0.118311265320E+03   -0.97469E-02   -0.99292E-03 12648   0.401E-01    0.345E+00
RMM:  36    -0.118343219977E+03   -0.31955E-01   -0.78068E-03 12648   0.362E-01    0.298E+00
RMM:  37    -0.118349726841E+03   -0.65069E-02   -0.66070E-04 12648   0.122E-01    0.304E+00
RMM:  38    -0.118353026794E+03   -0.33000E-02   -0.11578E-04 12591   0.413E-02    0.303E+00
RMM:  39    -0.118353456458E+03   -0.42966E-03   -0.14191E-05  7083   0.176E-02    0.302E+00
RMM:  40    -0.118357002154E+03   -0.35457E-02   -0.21905E-04 12647   0.630E-02    0.295E+00
RMM:  41    -0.118374741491E+03   -0.17739E-01   -0.41599E-03 12648   0.284E-01    0.259E+00
RMM:  42    -0.118386294968E+03   -0.11553E-01   -0.82152E-04 12648   0.117E-01    0.247E+00
RMM:  43    -0.118399783745E+03   -0.13489E-01   -0.13988E-03 12648   0.158E-01    0.224E+00
RMM:  44    -0.118413666438E+03   -0.13883E-01   -0.17286E-03 12648   0.174E-01    0.198E+00
RMM:  45    -0.118421407035E+03   -0.77406E-02   -0.79620E-04 12648   0.121E-01    0.184E+00
RMM:  46    -0.118429723705E+03   -0.83167E-02   -0.64175E-04 12648   0.106E-01    0.170E+00
RMM:  47    -0.118438445889E+03   -0.87222E-02   -0.13563E-03 12648   0.155E-01    0.146E+00
RMM:  48    -0.118443932594E+03   -0.54867E-02   -0.10375E-03 12648   0.132E-01    0.127E+00
RMM:  49    -0.118448494145E+03   -0.45616E-02   -0.71126E-04 12648   0.110E-01    0.111E+00
RMM:  50    -0.118451475810E+03   -0.29817E-02   -0.40861E-04 12648   0.838E-02    0.998E-01
RMM:  51    -0.118454710932E+03   -0.32351E-02   -0.56830E-04 12648   0.100E-01    0.845E-01
RMM:  52    -0.118450864877E+03    0.38461E-02   -0.34902E-04 12648   0.884E-02    0.101E+00
RMM:  53    -0.118458776246E+03   -0.79114E-02   -0.30381E-03 12648   0.247E-01    0.577E-01
RMM:  54    -0.118461512182E+03   -0.27359E-02   -0.26449E-03 12648   0.216E-01    0.284E-01
RMM:  55    -0.118461735139E+03   -0.22296E-03   -0.18478E-04 12646   0.591E-02    0.258E-01
RMM:  56    -0.118461942975E+03   -0.20784E-03   -0.14526E-04 12625   0.493E-02    0.190E-01
RMM:  57    -0.118461947925E+03   -0.49505E-05   -0.84747E-04 12648   0.125E-01    0.931E-02
RMM:  58    -0.118462002830E+03   -0.54905E-04   -0.37578E-05  9817   0.280E-02    0.592E-02
RMM:  59    -0.118462022141E+03   -0.19311E-04   -0.22020E-05  7906   0.214E-02    0.455E-02
RMM:  60    -0.118462046621E+03   -0.24480E-04   -0.12626E-05  6793   0.183E-02    0.203E-02
RMM:  61    -0.118462049557E+03   -0.29359E-05   -0.32841E-06  6519   0.954E-03
   2 F= -.11846205E+03 E0= -.11846364E+03  d E =-.571996E+00  mag=    16.0410
       N       E                     dE             d eps       ncg     rms          rms(c)
DAV:   1    -0.118465947723E+03   -0.39011E-02   -0.11214E-01 12804   0.953E-01    0.203E-01
RMM:   2    -0.118472879886E+03   -0.69322E-02   -0.36794E-03 12648   0.345E-01    0.139E+00
RMM:   3    -0.118466620857E+03    0.62590E-02   -0.17581E-03 12648   0.221E-01    0.280E-01
RMM:   4    -0.118466748535E+03   -0.12768E-03   -0.54278E-04 12648   0.117E-01    0.315E-01
RMM:   5    -0.118466563781E+03    0.18475E-03   -0.18736E-04 12648   0.721E-02    0.213E-01
RMM:   6    -0.118466414341E+03    0.14944E-03   -0.48096E-05 11060   0.372E-02    0.659E-02
RMM:   7    -0.118466428590E+03   -0.14248E-04   -0.97641E-06  6658   0.156E-02    0.867E-02
RMM:   8    -0.118466434565E+03   -0.59750E-05   -0.78031E-06  6497   0.152E-02
   3 F= -.11846643E+03 E0= -.11846785E+03  d E =-.576381E+00  mag=    16.0804
       N       E                     dE             d eps       ncg     rms          rms(c)
DAV:   1    -0.118472549952E+03   -0.61214E-02   -0.44822E-01 12693   0.190E+00    0.412E-01
RMM:   2    -0.118497431875E+03   -0.24882E-01   -0.13621E-02 12648   0.670E-01    0.263E+00
RMM:   3    -0.118475386530E+03    0.22045E-01   -0.62813E-03 12648   0.417E-01    0.571E-01
RMM:   4    -0.118475718807E+03   -0.33228E-03   -0.20638E-03 12648   0.230E-01    0.582E-01
RMM:   5    -0.118475008697E+03    0.71011E-03   -0.57574E-04 12648   0.129E-01    0.371E-01
RMM:   6    -0.118474781834E+03    0.22686E-03   -0.49074E-05 10729   0.355E-02    0.249E-01
RMM:   7    -0.118474733806E+03    0.48027E-04   -0.27741E-05  9258   0.263E-02    0.261E-01
RMM:   8    -0.118474549887E+03    0.18392E-03   -0.51194E-05 10614   0.346E-02    0.204E-01
RMM:   9    -0.118474541562E+03    0.83250E-05   -0.13902E-04 12648   0.562E-02    0.257E-01
RMM:  10    -0.118474204434E+03    0.33713E-03   -0.26597E-04 12648   0.725E-02    0.170E-01
RMM:  11    -0.118474151768E+03    0.52666E-04   -0.15324E-04 12648   0.594E-02    0.151E-01
RMM:  12    -0.118474158569E+03   -0.68016E-05   -0.20202E-04 12648   0.603E-02    0.163E-01
RMM:  13    -0.118474106453E+03    0.52117E-04   -0.64028E-05 12336   0.393E-02    0.114E-01
RMM:  14    -0.118474142377E+03   -0.35925E-04   -0.12144E-05  6723   0.170E-02    0.126E-01
RMM:  15    -0.118474143001E+03   -0.62335E-06   -0.21267E-06  6431   0.787E-03
   4 F= -.11847414E+03 E0= -.11847570E+03  d E =-.584090E+00  mag=    16.0314
       N       E                     dE             d eps       ncg     rms          rms(c)
DAV:   1    -0.118478842983E+03   -0.47006E-02   -0.17928E+00 12669   0.381E+00    0.791E-01
RMM:   2    -0.118566519736E+03   -0.87677E-01   -0.54582E-02 12648   0.135E+00    0.486E+00
RMM:   3    -0.118490009037E+03    0.76511E-01   -0.23102E-02 12648   0.800E-01    0.114E+00
RMM:   4    -0.118491891960E+03   -0.18829E-02   -0.85183E-03 12648   0.463E-01    0.131E+00
RMM:   5    -0.118489156903E+03    0.27351E-02   -0.28749E-03 12648   0.282E-01    0.883E-01
RMM:   6    -0.118486718127E+03    0.24388E-02   -0.80803E-04 12648   0.151E-01    0.344E-01
RMM:   7    -0.118486834085E+03   -0.11596E-03   -0.95027E-05 12562   0.434E-02    0.365E-01
RMM:   8    -0.118486990626E+03   -0.15654E-03   -0.54189E-05 11135   0.336E-02    0.381E-01
RMM:   9    -0.118486978483E+03    0.12144E-04   -0.17874E-05  7519   0.214E-02    0.394E-01
RMM:  10    -0.118486311212E+03    0.66727E-03   -0.27777E-04 12648   0.767E-02    0.306E-01
RMM:  11    -0.118486133797E+03    0.17742E-03   -0.26554E-04 12648   0.780E-02    0.288E-01
RMM:  12    -0.118485763064E+03    0.37073E-03   -0.12152E-03 12648   0.150E-01    0.274E-01
RMM:  13    -0.118485497183E+03    0.26588E-03   -0.39199E-04 12648   0.923E-02    0.893E-02
RMM:  14    -0.118485568468E+03   -0.71285E-04   -0.74655E-05 12362   0.407E-02    0.121E-01
RMM:  15    -0.118485516052E+03    0.52416E-04   -0.40888E-05 10734   0.340E-02    0.541E-02
RMM:  16    -0.118485528550E+03   -0.12498E-04   -0.21992E-05  8112   0.224E-02    0.610E-02
RMM:  17    -0.118485527529E+03    0.10203E-05   -0.53421E-06  6454   0.130E-02
   5 F= -.11848553E+03 E0= -.11848684E+03  d E =-.595474E+00  mag=    16.0691
       N       E                     dE             d eps       ncg     rms          rms(c)
DAV:   1    -0.118466188094E+03    0.19340E-01   -0.71721E+00 12663   0.762E+00    0.166E+00
RMM:   2    -0.118967960318E+03   -0.50177E+00   -0.27838E-01 12648   0.304E+00    0.118E+01
RMM:   3    -0.118510627285E+03    0.45733E+00   -0.12719E-01 12648   0.189E+00    0.231E+00
RMM:   4    -0.118515146027E+03   -0.45187E-02   -0.33897E-02 12648   0.924E-01    0.239E+00
RMM:   5    -0.118506790442E+03    0.83556E-02   -0.12161E-02 12648   0.580E-01    0.177E+00
RMM:   6    -0.118496649439E+03    0.10141E-01   -0.33407E-03 12648   0.306E-01    0.553E-01
RMM:   7    -0.118497507997E+03   -0.85856E-03   -0.60700E-04 12648   0.114E-01    0.699E-01
RMM:   8    -0.118497782396E+03   -0.27440E-03   -0.34052E-04 12648   0.875E-02    0.653E-01
RMM:   9    -0.118497791134E+03   -0.87375E-05   -0.29068E-05  9467   0.234E-02
   6 F= -.11849779E+03 E0= -.11849794E+03  d E =-.607738E+00  mag=    16.2500
       N       E                     dE             d eps       ncg     rms          rms(c)
DAV:   1    -0.118497769389E+03    0.13008E-04   -0.75395E+00 12669   0.789E+00    0.150E+00
RMM:   2    -0.118688700682E+03   -0.19093E+00   -0.17025E-01 12648   0.238E+00    0.697E+00
RMM:   3    -0.118537369739E+03    0.15133E+00   -0.76276E-02 12648   0.145E+00    0.232E+00
RMM:   4    -0.118548732234E+03   -0.11362E-01   -0.24939E-02 12648   0.787E-01    0.270E+00
RMM:   5    -0.118532897661E+03    0.15835E-01   -0.87035E-03 12648   0.492E-01    0.142E+00
RMM:   6    -0.118527448363E+03    0.54493E-02   -0.35500E-03 12648   0.313E-01    0.947E-01
RMM:   7    -0.118527461496E+03   -0.13134E-04   -0.17907E-04 12648   0.517E-02    0.919E-01
RMM:   8    -0.118526409996E+03    0.10515E-02   -0.32779E-04 12648   0.831E-02    0.924E-01
RMM:   9    -0.118525231465E+03    0.11785E-02   -0.11281E-03 12648   0.160E-01    0.839E-01
RMM:  10    -0.118521624696E+03    0.36068E-02   -0.31574E-03 12648   0.259E-01    0.668E-01
RMM:  11    -0.118520310377E+03    0.13143E-02   -0.25591E-03 12648   0.243E-01    0.524E-01
RMM:  12    -0.118519266842E+03    0.10435E-02   -0.38115E-03 12648   0.271E-01    0.492E-01
RMM:  13    -0.118518406621E+03    0.86022E-03   -0.13018E-03 12648   0.172E-01    0.207E-01
RMM:  14    -0.118518670772E+03   -0.26415E-03   -0.30147E-04 12648   0.841E-02    0.254E-01
RMM:  15    -0.118518499312E+03    0.17146E-03   -0.19618E-04 12648   0.717E-02    0.162E-01
RMM:  16    -0.118518640626E+03   -0.14131E-03   -0.72976E-05 12498   0.383E-02    0.197E-01
RMM:  17    -0.118518642150E+03   -0.15235E-05   -0.32857E-06  6579   0.666E-03
   7 F= -.11851864E+03 E0= -.11851990E+03  d E =-.208510E-01  mag=    16.0841
       N       E                     dE             d eps       ncg     rms          rms(c)
DAV:   1    -0.118501005242E+03    0.17635E-01   -0.84725E+00 12669   0.835E+00    0.141E+00
RMM:   2    -0.118605192103E+03   -0.10419E+00   -0.14971E-01 12648   0.230E+00    0.478E+00
RMM:   3    -0.118544649671E+03    0.60542E-01   -0.49851E-02 12648   0.116E+00    0.239E+00
RMM:   4    -0.118556306030E+03   -0.11656E-01   -0.25760E-02 12648   0.804E-01    0.272E+00
RMM:   5    -0.118535199459E+03    0.21107E-01   -0.93601E-03 12648   0.531E-01    0.125E+00
RMM:   6    -0.118529853981E+03    0.53455E-02   -0.27453E-03 12648   0.270E-01    0.490E-01
RMM:   7    -0.118530802634E+03   -0.94865E-03   -0.12380E-03 12648   0.169E-01    0.709E-01
RMM:   8    -0.118530272837E+03    0.52980E-03   -0.10971E-03 12648   0.160E-01    0.572E-01
RMM:   9    -0.118529772632E+03    0.50020E-03   -0.68999E-04 12648   0.131E-01    0.433E-01
RMM:  10    -0.118530207741E+03   -0.43511E-03   -0.16311E-04 12648   0.533E-02    0.487E-01
RMM:  11    -0.118530199870E+03    0.78714E-05   -0.10050E-05  6809   0.125E-02
   8 F= -.11853020E+03 E0= -.11853156E+03  d E =-.324087E-01  mag=    16.1020
       N       E                     dE             d eps       ncg     rms          rms(c)
DAV:   1    -0.118528941556E+03    0.12662E-02   -0.69456E-02 13155   0.891E-01    0.410E-01
RMM:   2    -0.118561565608E+03   -0.32624E-01   -0.16742E-02 12648   0.663E-01    0.291E+00
RMM:   3    -0.118532811285E+03    0.28754E-01   -0.99975E-03 12648   0.542E-01    0.106E+00
RMM:   4    -0.118529822440E+03    0.29888E-02   -0.13466E-03 12648   0.178E-01    0.426E-01
RMM:   5    -0.118530044422E+03   -0.22198E-03   -0.13556E-04 12648   0.490E-02    0.474E-01
RMM:   6    -0.118530081997E+03   -0.37575E-04   -0.54991E-06  6819   0.106E-02    0.476E-01
RMM:   7    -0.118530215523E+03   -0.13353E-03   -0.21414E-04 12648   0.695E-02    0.577E-01
RMM:   8    -0.118528847700E+03    0.13678E-02   -0.14784E-03 12648   0.173E-01    0.379E-01
RMM:   9    -0.118528424125E+03    0.42358E-03   -0.46713E-04 12648   0.100E-01    0.216E-01
RMM:  10    -0.118528537643E+03   -0.11352E-03   -0.30287E-04 12648   0.807E-02    0.264E-01
RMM:  11    -0.118528247960E+03    0.28968E-03   -0.19360E-04 12648   0.667E-02    0.917E-02
RMM:  12    -0.118528322352E+03   -0.74392E-04   -0.11781E-04 12648   0.538E-02    0.152E-01
RMM:  13    -0.118528237412E+03    0.84940E-04   -0.70433E-05 12319   0.394E-02    0.665E-02
RMM:  14    -0.118528259813E+03   -0.22400E-04   -0.20633E-05  8134   0.224E-02    0.884E-02
RMM:  15    -0.118528257352E+03    0.24601E-05   -0.10984E-05  6547   0.198E-02
   9 F= -.11852826E+03 E0= -.11852944E+03  d E =-.304662E-01  mag=    16.0999
       N       E                     dE             d eps       ncg     rms          rms(c)
DAV:   1    -0.118526716873E+03    0.15429E-02   -0.20743E+00 12675   0.414E+00    0.754E-01
RMM:   2    -0.118617835144E+03   -0.91118E-01   -0.52901E-02 12648   0.133E+00    0.514E+00
RMM:   3    -0.118535371215E+03    0.82464E-01   -0.23403E-02 12648   0.801E-01    0.826E-01
RMM:   4    -0.118539718971E+03   -0.43478E-02   -0.74489E-03 12648   0.434E-01    0.123E+00
RMM:   5    -0.118534611520E+03    0.51075E-02   -0.25950E-03 12648   0.278E-01    0.548E-01
RMM:   6    -0.118533664786E+03    0.94673E-03   -0.49744E-04 12648   0.114E-01    0.203E-01
RMM:   7    -0.118533807765E+03   -0.14298E-03   -0.21150E-04 12648   0.695E-02    0.260E-01
RMM:   8    -0.118533892466E+03   -0.84701E-04   -0.21626E-04 12648   0.699E-02    0.311E-01
RMM:   9    -0.118533771475E+03    0.12099E-03   -0.57937E-05 11687   0.368E-02    0.224E-01
RMM:  10    -0.118533833471E+03   -0.61995E-04   -0.10017E-05  6628   0.136E-02    0.244E-01
RMM:  11    -0.118533814030E+03    0.19440E-04   -0.16019E-05  7485   0.209E-02    0.249E-01
RMM:  12    -0.118533586123E+03    0.22791E-03   -0.40844E-04 12648   0.935E-02    0.245E-01
RMM:  13    -0.118533311701E+03    0.27442E-03   -0.29791E-04 12648   0.819E-02    0.115E-01
RMM:  14    -0.118533312485E+03   -0.78389E-06   -0.14500E-04 12648   0.496E-02    0.103E-01
RMM:  15    -0.118533283002E+03    0.29483E-04   -0.43065E-05 11136   0.322E-02    0.527E-02
RMM:  16    -0.118533290634E+03   -0.76322E-05   -0.51545E-06  6498   0.125E-02
  10 F= -.11853329E+03 E0= -.11853454E+03  d E =-.503328E-02  mag=    16.1035
       N       E                     dE             d eps       ncg     rms          rms(c)
DAV:   1    -0.118531272372E+03    0.20106E-02   -0.94533E-01 12699   0.280E+00    0.504E-01
RMM:   2    -0.118569232413E+03   -0.37960E-01   -0.22975E-02 12648   0.881E-01    0.330E+00
RMM:   3    -0.118535289418E+03    0.33943E-01   -0.98762E-03 12648   0.521E-01    0.579E-01
RMM:   4    -0.118537300962E+03   -0.20115E-02   -0.34313E-03 12648   0.295E-01    0.866E-01
RMM:   5    -0.118535020029E+03    0.22809E-02   -0.12033E-03 12648   0.189E-01    0.413E-01
RMM:   6    -0.118534474767E+03    0.54526E-03   -0.25913E-04 12648   0.833E-02    0.157E-01
RMM:   7    -0.118534525975E+03   -0.51208E-04   -0.84241E-05 12537   0.436E-02    0.178E-01
RMM:   8    -0.118534578454E+03   -0.52480E-04   -0.98970E-05 12599   0.467E-02    0.212E-01
RMM:   9    -0.118534538761E+03    0.39694E-04   -0.26046E-05  8936   0.255E-02    0.172E-01
RMM:  10    -0.118534550632E+03   -0.11872E-04   -0.39690E-06  6509   0.903E-03    0.178E-01
RMM:  11    -0.118534531717E+03    0.18915E-04   -0.96901E-06  6646   0.159E-02    0.177E-01
RMM:  12    -0.118534441387E+03    0.90330E-04   -0.10632E-04 12645   0.476E-02    0.176E-01
RMM:  13    -0.118534347566E+03    0.93822E-04   -0.12855E-04 12648   0.538E-02    0.133E-01
RMM:  14    -0.118534288011E+03    0.59555E-04   -0.86364E-05 12549   0.412E-02    0.835E-02
RMM:  15    -0.118534282932E+03    0.50785E-05   -0.28083E-05  8978   0.260E-02
  11 F= -.11853428E+03 E0= -.11853564E+03  d E =-.602558E-02  mag=    16.0881
       N       E                     dE             d eps       ncg     rms          rms(c)
DAV:   1    -0.118533577068E+03    0.71094E-03   -0.46489E-01 12657   0.194E+00    0.342E-01
RMM:   2    -0.118539445590E+03   -0.58685E-02   -0.76027E-03 12648   0.514E-01    0.114E+00
RMM:   3    -0.118535988597E+03    0.34570E-02   -0.27284E-03 12648   0.267E-01    0.556E-01
RMM:   4    -0.118536943400E+03   -0.95480E-03   -0.13755E-03 12648   0.185E-01    0.676E-01
RMM:   5    -0.118535539322E+03    0.14041E-02   -0.61756E-04 12648   0.134E-01    0.277E-01
RMM:   6    -0.118535253715E+03    0.28561E-03   -0.13958E-04 12648   0.613E-02    0.866E-02
RMM:   7    -0.118535277116E+03   -0.23401E-04   -0.38882E-05 10400   0.303E-02    0.121E-01
RMM:   8    -0.118535258698E+03    0.18417E-04   -0.53127E-05 11237   0.361E-02    0.107E-01
RMM:   9    -0.118535235510E+03    0.23188E-04   -0.28835E-05  9305   0.286E-02    0.709E-02
RMM:  10    -0.118535259625E+03   -0.24115E-04   -0.14611E-05  6714   0.185E-02    0.906E-02
RMM:  11    -0.118535258657E+03    0.96805E-06   -0.43992E-06  6454   0.122E-02
  12 F= -.11853526E+03 E0= -.11853652E+03  d E =-.975725E-03  mag=    16.0816
       N       E                     dE             d eps       ncg     rms          rms(c)
DAV:   1    -0.118534764388E+03    0.49524E-03   -0.16091E-01 12708   0.115E+00    0.215E-01
RMM:   2    -0.118538142613E+03   -0.33782E-02   -0.31685E-03 12648   0.322E-01    0.903E-01
RMM:   3    -0.118535649459E+03    0.24932E-02   -0.13504E-03 12648   0.192E-01    0.355E-01
RMM:   4    -0.118535867595E+03   -0.21814E-03   -0.59338E-04 12648   0.120E-01    0.362E-01
RMM:   5    -0.118535539883E+03    0.32771E-03   -0.22131E-04 12648   0.806E-02    0.224E-01
RMM:   6    -0.118535394608E+03    0.14527E-03   -0.65344E-05 11893   0.420E-02    0.109E-01
RMM:   7    -0.118535390128E+03    0.44800E-05   -0.66254E-06  6636   0.128E-02
  13 F= -.11853539E+03 E0= -.11853662E+03  d E =-.110720E-02  mag=    16.0821
