 vasp.5.4.4.18Apr17-6-g9f103f2a35 (build Sep 06 2021 19:49:22) complex          
  
 executed on             LinuxIFC date 2021.12.29  15:12:02
 running on   24 total cores
 distrk:  each k-point on   24 cores,    1 groups
 distr:  one band on NCORES_PER_BAND=   8 cores,    3 groups


--------------------------------------------------------------------------------------------------------


 INCAR:
 POTCAR:    PAW_PBE Ni 02Aug2007                  
 POTCAR:    PAW_PBE Fe 06Sep2000                  
 POTCAR:    PAW_PBE Ni 02Aug2007                  
   VRHFIN =Ni:                                                                  
   LEXCH  = PE                                                                  
   EATOM  =  1077.6739 eV,   79.2068 Ry                                         
                                                                                
   TITEL  = PAW_PBE Ni 02Aug2007                                                
   LULTRA =        F    use ultrasoft PP ?                                      
   IUNSCR =        1    unscreen: 0-lin 1-nonlin 2-no                           
   RPACOR =    2.000    partial core radius                                     
   POMASS =   58.690; ZVAL   =   10.000    mass and valenz                      
   RCORE  =    2.300    outmost cutoff radius                                   
   RWIGS  =    2.430; RWIGS  =    1.286    wigner-seitz radius (au A)           
   ENMAX  =  269.532; ENMIN  =  202.149 eV                                      
   RCLOC  =    1.201    cutoff for local pot                                    
   LCOR   =        T    correct aug charges                                     
   LPAW   =        T    paw PP                                                  
   EAUG   =  544.565                                                            
   DEXC   =    0.000                                                            
   RMAX   =    2.357    core radius for proj-oper                               
   RAUG   =    1.300    factor for augmentation sphere                          
   RDEP   =    2.390    radius for radial grids                                 
   RDEPT  =    1.838    core radius for aug-charge                              
                                                                                
   Atomic configuration                                                         
    9 entries                                                                   
     n  l   j            E        occ.                                          
     1  0  0.50     -8206.4253   2.0000                                         
     2  0  0.50      -976.1748   2.0000                                         
     2  1  1.50      -839.0571   6.0000                                         
     3  0  0.50      -105.9991   2.0000                                         
     3  1  1.50       -66.4603   6.0000                                         
     3  2  2.50        -4.6458   9.0000                                         
     4  0  0.50        -4.4926   1.0000                                         
     4  1  1.50        -4.0817   0.0000                                         
     4  3  2.50        -1.3606   0.0000                                         
   Description                                                                  
     l       E           TYP  RCUT    TYP  RCUT                                 
     2     -4.6457903     23  2.300                                             
     2     -6.0063729     23  2.300                                             
     0     -4.4925590     23  2.300                                             
     0      5.0102601     23  2.300                                             
     1     -2.7211652     23  2.300                                             
     1     16.5183231     23  2.300                                             
  local pseudopotential read in
  partial core-charges read in
  partial kinetic energy density read in
  atomic valenz-charges read in
  non local Contribution for L=           2  read in
    real space projection operators read in
  non local Contribution for L=           2  read in
    real space projection operators read in
  non local Contribution for L=           0  read in
    real space projection operators read in
  non local Contribution for L=           0  read in
    real space projection operators read in
  non local Contribution for L=           1  read in
    real space projection operators read in
  non local Contribution for L=           1  read in
    real space projection operators read in
    PAW grid and wavefunctions read in
 
   number of l-projection  operators is LMAX  =           6
   number of lm-projection operators is LMMAX =          18
 
 POTCAR:    PAW_PBE Fe 06Sep2000                  
   VRHFIN =Fe:  d7 s1                                                           
   LEXCH  = PE                                                                  
   EATOM  =   594.3153 eV,   43.6809 Ry                                         
                                                                                
   TITEL  = PAW_PBE Fe 06Sep2000                                                
   LULTRA =        F    use ultrasoft PP ?                                      
   IUNSCR =        1    unscreen: 0-lin 1-nonlin 2-no                           
   RPACOR =    2.000    partial core radius                                     
   POMASS =   55.847; ZVAL   =    8.000    mass and valenz                      
   RCORE  =    2.300    outmost cutoff radius                                   
   RWIGS  =    2.460; RWIGS  =    1.302    wigner-seitz radius (au A)           
   ENMAX  =  267.882; ENMIN  =  200.911 eV                                      
   RCLOC  =    1.701    cutoff for local pot                                    
   LCOR   =        T    correct aug charges                                     
   LPAW   =        T    paw PP                                                  
   EAUG   =  511.368                                                            
   DEXC   =    0.000                                                            
   RMAX   =    2.356    core radius for proj-oper                               
   RAUG   =    1.300    factor for augmentation sphere                          
   RDEP   =    2.442    radius for radial grids                                 
   RDEPT  =    1.890    core radius for aug-charge                              
                                                                                
   Atomic configuration                                                         
    9 entries                                                                   
     n  l   j            E        occ.                                          
     1  0  0.50     -6993.8440   2.0000                                         
     2  0  0.50      -814.6047   2.0000                                         
     2  1  1.50      -693.3689   6.0000                                         
     3  0  0.50       -89.4732   2.0000                                         
     3  1  1.50       -55.6373   6.0000                                         
     3  2  2.50        -3.8151   7.0000                                         
     4  0  0.50        -4.2551   1.0000                                         
     4  1  1.50        -3.4015   0.0000                                         
     4  3  2.50        -1.3606   0.0000                                         
   Description                                                                  
     l       E           TYP  RCUT    TYP  RCUT                                 
     2     -3.8151135     23  2.300                                             
     2     -5.1756961     23  2.300                                             
     0     -4.2550963     23  2.300                                             
     0      7.2035603     23  2.300                                             
     1     -2.7211652     23  2.300                                             
     1     18.4316424     23  2.300                                             
  local pseudopotential read in
  partial core-charges read in
  partial kinetic energy density read in
  atomic valenz-charges read in
  non local Contribution for L=           2  read in
    real space projection operators read in
  non local Contribution for L=           2  read in
    real space projection operators read in
  non local Contribution for L=           0  read in
    real space projection operators read in
  non local Contribution for L=           0  read in
    real space projection operators read in
  non local Contribution for L=           1  read in
    real space projection operators read in
  non local Contribution for L=           1  read in
    real space projection operators read in
    PAW grid and wavefunctions read in
 
   number of l-projection  operators is LMAX  =           6
   number of lm-projection operators is LMMAX =          18
 
 Optimization of the real space projectors (new method)

 maximal supplied QI-value         = 16.25
 optimisation between [QCUT,QGAM] = [ 11.54, 23.24] = [ 37.28,151.24] Ry 
 Optimized for a Real-space Cutoff    1.45 Angstroem

   l    n(q)    QCUT    max X(q) W(low)/X(q) W(high)/X(q)  e(spline) 
   2      9    11.539    60.317    0.19E-03    0.47E-04    0.16E-06
   2      9    11.539    55.921    0.19E-03    0.48E-04    0.16E-06
   0     10    11.539    51.690    0.80E-04    0.50E-04    0.24E-06
   0     10    11.539    30.015    0.73E-04    0.45E-04    0.22E-06
   1     10    11.539    18.849    0.87E-04    0.16E-03    0.71E-07
   1     10    11.539    14.624    0.73E-04    0.13E-03    0.64E-07
 Optimization of the real space projectors (new method)

 maximal supplied QI-value         = 16.25
 optimisation between [QCUT,QGAM] = [ 11.54, 23.24] = [ 37.28,151.24] Ry 
 Optimized for a Real-space Cutoff    1.53 Angstroem

   l    n(q)    QCUT    max X(q) W(low)/X(q) W(high)/X(q)  e(spline) 
   2     10    11.539    80.901    0.11E-03    0.14E-03    0.21E-06
   2     10    11.539    75.754    0.11E-03    0.14E-03    0.22E-06
   0     11    11.539    58.752    0.52E-04    0.18E-04    0.33E-06
   0     11    11.539    30.679    0.44E-04    0.16E-04    0.30E-06
   1     10    11.539    17.977    0.53E-04    0.29E-04    0.13E-06
   1     10    11.539    13.559    0.44E-04    0.25E-04    0.11E-06
  PAW_PBE Ni 02Aug2007                  :
 energy of atom  1       EATOM=-1077.6739
 kinetic energy error for atom=    0.0030 (will be added to EATOM!!)
  PAW_PBE Fe 06Sep2000                  :
 energy of atom  2       EATOM= -594.3153
 kinetic energy error for atom=    0.0026 (will be added to EATOM!!)
 
 
 POSCAR: POSCAR                                  
  positions in direct lattice
  velocities in cartesian coordinates
 exchange correlation table for  LEXCH =        8
   RHO(1)=    0.500       N(1)  =     2000
   RHO(2)=  100.500       N(2)  =     4000
 


--------------------------------------------------------------------------------------------------------


 ion  position               nearest neighbor table
   1  0.248  0.692  0.816-   8 2.48   6 2.52  14 2.52   3 2.54   7 2.55   8 2.55   2 2.55  12 2.56
                             6 2.58   4 2.58   9 2.60  13 2.60
   2  0.001  0.250  0.751-   7 2.50   9 2.51   3 2.53  14 2.53   4 2.54   1 2.55   6 2.56   8 2.56
                             7 2.57  15 2.59   9 2.59  13 2.61
   3  0.249  0.938  0.561-  15 2.50   8 2.51   2 2.53  11 2.53   1 2.54   4 2.55  10 2.56   9 2.56
                            15 2.57   7 2.59   8 2.59   5 2.61
   4  0.002  0.496  0.496-   9 2.48  10 2.52  11 2.52   2 2.54  15 2.55   3 2.55   9 2.55  16 2.56
                            10 2.58   1 2.58   8 2.60   5 2.60
   5  0.995  0.748  0.237-   6 2.42  14 2.44  12 2.44  13 2.44  10 2.49  12 2.50  16 2.53  11 2.54
                            15 2.57  10 2.60   4 2.60   3 2.61
   6  0.739  0.559  0.943-   5 2.42  16 2.44   7 2.46  13 2.49  12 2.51   1 2.52   8 2.54   9 2.55
                             2 2.56  14 2.57   1 2.58  13 2.60
   7  0.512  0.129  0.880-  16 2.42   6 2.46  14 2.47   2 2.50   8 2.50   1 2.55  12 2.55   2 2.57
                            13 2.57   9 2.58  14 2.59   3 2.59
   8  0.738  0.809  0.691-   9 2.46   1 2.48   7 2.50   3 2.51   6 2.54  14 2.54   1 2.55  10 2.55
                             2 2.56  15 2.58   3 2.59   4 2.60
   9  0.512  0.379  0.621-   8 2.46   4 2.48  15 2.50   2 2.51  10 2.54  11 2.54   4 2.55   6 2.55
                             3 2.56   7 2.58   2 2.59   1 2.60
  10  0.511  0.629  0.370-  13 2.42  12 2.44  15 2.46   5 2.49  16 2.51   4 2.52   9 2.54   8 2.55
                             3 2.56  11 2.57   4 2.58   5 2.60
  11  0.254  0.185  0.309-  13 2.44  15 2.47  12 2.48  14 2.50  16 2.50   4 2.52   3 2.53   5 2.54
                             9 2.54  10 2.57  16 2.58  15 2.58
  12  0.507  0.876  0.132-  15 2.42  10 2.44   5 2.44  11 2.48  14 2.50   5 2.50  16 2.50   6 2.51
                            13 2.53   7 2.55   1 2.56  14 2.58
  13  0.255  0.439  0.076-  10 2.42  11 2.44  16 2.44   5 2.44   6 2.49  16 2.50  12 2.53  14 2.54
                             7 2.57   6 2.60   1 2.60   2 2.61
  14  0.996  0.002  0.003-   5 2.44   7 2.47  16 2.48  11 2.50  12 2.50   1 2.52   2 2.53   8 2.54
                            13 2.54   6 2.57  12 2.58   7 2.59
  15  0.738  0.058  0.432-  12 2.42  10 2.46  11 2.47   3 2.50   9 2.50   4 2.55  16 2.55   3 2.57
                             5 2.57   8 2.58  11 2.58   2 2.59
  16  0.743  0.312  0.181-   7 2.42   6 2.44  13 2.44  14 2.48  13 2.50  11 2.50  12 2.50  10 2.51
                             5 2.53  15 2.55   4 2.56  11 2.58
 

IMPORTANT INFORMATION: All symmetrisations will be switched off!
NOSYMM: (Re-)initialisation of all symmetry stuff for point group C_1.

 
 

Automatic generation of k-mesh.
 generate k-points for:    5    4    3
Space group operators:
 irot       det(A)        alpha          n_x          n_y          n_z        tau_x        tau_y        tau_z
    1     1.000000     0.000000     1.000000     0.000000     0.000000     0.000000     0.000000     0.000000
 
 Subroutine IBZKPT returns following result:
 ===========================================
 
 Found     31 irreducible k-points:
 
 Following reciprocal coordinates:
            Coordinates               Weight
  0.000000  0.000000  0.000000      1.000000
  0.200000  0.000000  0.000000      2.000000
  0.400000  0.000000  0.000000      2.000000
  0.000000  0.250000  0.000000      2.000000
  0.200000  0.250000  0.000000      2.000000
  0.400000  0.250000  0.000000      2.000000
 -0.400000  0.250000  0.000000      2.000000
 -0.200000  0.250000  0.000000      2.000000
  0.000000  0.500000  0.000000      1.000000
  0.200000  0.500000  0.000000      2.000000
  0.400000  0.500000  0.000000      2.000000
  0.000000  0.000000  0.333333      2.000000
  0.200000  0.000000  0.333333      2.000000
  0.400000  0.000000  0.333333      2.000000
 -0.400000  0.000000  0.333333      2.000000
 -0.200000  0.000000  0.333333      2.000000
  0.000000  0.250000  0.333333      2.000000
  0.200000  0.250000  0.333333      2.000000
  0.400000  0.250000  0.333333      2.000000
 -0.400000  0.250000  0.333333      2.000000
 -0.200000  0.250000  0.333333      2.000000
  0.000000  0.500000  0.333333      2.000000
  0.200000  0.500000  0.333333      2.000000
  0.400000  0.500000  0.333333      2.000000
 -0.400000  0.500000  0.333333      2.000000
 -0.200000  0.500000  0.333333      2.000000
  0.000000 -0.250000  0.333333      2.000000
  0.200000 -0.250000  0.333333      2.000000
  0.400000 -0.250000  0.333333      2.000000
 -0.400000 -0.250000  0.333333      2.000000
 -0.200000 -0.250000  0.333333      2.000000
 
 Following cartesian coordinates:
            Coordinates               Weight
 -0.000000 -0.000000 -0.000000      1.000000
  0.050000  0.050000 -0.150000      2.000000
  0.100000  0.100000 -0.300000      2.000000
 -0.015625 -0.140625 -0.078125      2.000000
  0.034375 -0.090625 -0.228125      2.000000
  0.084375 -0.040625 -0.378125      2.000000
 -0.115625 -0.240625  0.221875      2.000000
 -0.065625 -0.190625  0.071875      2.000000
 -0.031250 -0.281250 -0.156250      1.000000
  0.018750 -0.231250 -0.306250      2.000000
  0.068750 -0.181250 -0.456250      2.000000
 -0.145833  0.020833 -0.062500      2.000000
 -0.095833  0.070833 -0.212500      2.000000
 -0.045833  0.120833 -0.362500      2.000000
 -0.245833 -0.079167  0.237500      2.000000
 -0.195833 -0.029167  0.087500      2.000000
 -0.161458 -0.119792 -0.140625      2.000000
 -0.111458 -0.069792 -0.290625      2.000000
 -0.061458 -0.019792 -0.440625      2.000000
 -0.261458 -0.219792  0.159375      2.000000
 -0.211458 -0.169792  0.009375      2.000000
 -0.177083 -0.260417 -0.218750      2.000000
 -0.127083 -0.210417 -0.368750      2.000000
 -0.077083 -0.160417 -0.518750      2.000000
 -0.277083 -0.360417  0.081250      2.000000
 -0.227083 -0.310417 -0.068750      2.000000
 -0.130208  0.161458  0.015625      2.000000
 -0.080208  0.211458 -0.134375      2.000000
 -0.030208  0.261458 -0.284375      2.000000
 -0.230208  0.061458  0.315625      2.000000
 -0.180208  0.111458  0.165625      2.000000
 


--------------------------------------------------------------------------------------------------------




 Dimension of arrays:
   k-points           NKPTS =     31   k-points in BZ     NKDIM =     31   number of bands    NBANDS=    102
   number of dos      NEDOS =    301   number of ions     NIONS =     16
   non local maximal  LDIM  =      6   non local SUM 2l+1 LMDIM =     18
   total plane-waves  NPLWV =  84672
   max r-space proj   IRMAX =   7052   max aug-charges    IRDMAX=  16701
   dimension x,y,z NGX =    36 NGY =   42 NGZ =   56
   dimension x,y,z NGXF=    72 NGYF=   84 NGZF=  112
   support grid    NGXF=    72 NGYF=   84 NGZF=  112
   ions per type =               4  12
   NGX,Y,Z   is equivalent  to a cutoff of  13.67, 12.35, 12.28 a.u.
   NGXF,Y,Z  is equivalent  to a cutoff of  27.34, 24.70, 24.55 a.u.

 SYSTEM =  SQS-NiFe                                
 POSCAR =  POSCAR                                  

 Startparameter for this run:
   NWRITE =      2    write-flag & timer
   PREC   = accura    normal or accurate (medium, high low for compatibility)
   ISTART =      0    job   : 0-new  1-cont  2-samecut
   ICHARG =      2    charge: 1-file 2-atom 10-const
   ISPIN  =      2    spin polarized calculation?
   LNONCOLLINEAR =      F non collinear calculations
   LSORBIT =      F    spin-orbit coupling
   INIWAV =      1    electr: 0-lowe 1-rand  2-diag
   LASPH  =      F    aspherical Exc in radial PAW
   METAGGA=      F    non-selfconsistent MetaGGA calc.

 Electronic Relaxation 1
   ENCUT  =  520.0 eV  38.22 Ry    6.18 a.u.   8.14 10.51 14.10*2*pi/ulx,y,z
   ENINI  =  520.0     initial cutoff
   ENAUG  =  544.6 eV  augmentation charge cutoff
   NELM   =    200;   NELMIN=  2; NELMDL= -5     # of ELM steps 
   EDIFF  = 0.1E-04   stopping-criterion for ELM
   LREAL  =      T    real-space projection
   NLSPLINE    = F    spline interpolate recip. space projectors
   LCOMPAT=      F    compatible to vasp.4.4
   GGA_COMPAT  = T    GGA compatible to vasp.4.4-vasp.4.6
   LMAXPAW     = -100 max onsite density
   LMAXMIX     =    2 max onsite mixed and CHGCAR
   VOSKOWN=      0    Vosko Wilk Nusair interpolation
   ROPT   =   -0.00025  -0.00025
 Ionic relaxation
   EDIFFG = -.2E-01   stopping-criterion for IOM
   NSW    =     99    number of steps for IOM
   NBLOCK =      1;   KBLOCK =     99    inner block; outer block 
   IBRION =      2    ionic relax: 0-MD 1-quasi-New 2-CG
   NFREE  =      1    steps in history (QN), initial steepest desc. (CG)
   ISIF   =      2    stress and relaxation
   IWAVPR =     11    prediction:  0-non 1-charg 2-wave 3-comb
   ISYM   =      0    0-nonsym 1-usesym 2-fastsym
   LCORR  =      T    Harris-Foulkes like correction to forces

   POTIM  = 0.5000    time-step for ionic-motion
   TEIN   =    0.0    initial temperature
   TEBEG  =    0.0;   TEEND  =   0.0 temperature during run
   SMASS  =  -3.00    Nose mass-parameter (am)
   estimated Nose-frequenzy (Omega)   =  0.10E-29 period in steps =****** mass=  -0.438E-27a.u.
   SCALEE = 1.0000    scale energy and forces
   NPACO  =    256;   APACO  = 16.0  distance and # of slots for P.C.
   PSTRESS=    0.0 pullay stress

  Mass of Ions in am
   POMASS =  58.69 55.85
  Ionic Valenz
   ZVAL   =  10.00  8.00
  Atomic Wigner-Seitz radii
   RWIGS  =  -1.00 -1.00
  virtual crystal weights 
   VCA    =   1.00  1.00
   NELECT =     136.0000    total number of electrons
   NUPDOWN=      -1.0000    fix difference up-down

 DOS related values:
   EMIN   =  10.00;   EMAX   =-10.00  energy-range for DOS
   EFERMI =   0.00
   ISMEAR =     1;   SIGMA  =   0.20  broadening in eV -4-tet -1-fermi 0-gaus

 Electronic relaxation 2 (details)
   IALGO  =     68    algorithm
   LDIAG  =      T    sub-space diagonalisation (order eigenvalues)
   LSUBROT=      F    optimize rotation matrix (better conditioning)
   TURBO    =      0    0=normal 1=particle mesh
   IRESTART =      0    0=no restart 2=restart with 2 vectors
   NREBOOT  =      0    no. of reboots
   NMIN     =      0    reboot dimension
   EREF     =   0.00    reference energy to select bands
   IMIX   =      4    mixing-type and parameters
     AMIX     =   0.40;   BMIX     =  1.00
     AMIX_MAG =   1.60;   BMIX_MAG =  1.00
     AMIN     =   0.10
     WC   =   100.;   INIMIX=   1;  MIXPRE=   1;  MAXMIX= -45

 Intra band minimization:
   WEIMIN = 0.0010     energy-eigenvalue tresh-hold
   EBREAK =  0.25E-07  absolut break condition
   DEPER  =   0.30     relativ break condition  

   TIME   =   0.40     timestep for ELM

  volume/ion in A,a.u.               =      11.42        77.08
  Fermi-wavevector in a.u.,A,eV,Ry     =   1.483514  2.803436 29.943904  2.200815
  Thomas-Fermi vector in A             =   2.597166
 
 Write flags
   LWAVE        =      F    write WAVECAR
   LDOWNSAMPLE  =      F    k-point downsampling of WAVECAR
   LCHARG       =      F    write CHGCAR
   LVTOT        =      F    write LOCPOT, total local potential
   LVHAR        =      F    write LOCPOT, Hartree potential only
   LELF         =      F    write electronic localiz. function (ELF)
   LORBIT       =     10    0 simple, 1 ext, 2 COOP (PROOUT), +10 PAW based schemes


 Dipole corrections
   LMONO  =      F    monopole corrections only (constant potential shift)
   LDIPOL =      F    correct potential (dipole corrections)
   IDIPOL =      0    1-x, 2-y, 3-z, 4-all directions 
   EPSILON=  1.0000000 bulk dielectric constant

 Exchange correlation treatment:
   GGA     =    --    GGA type
   LEXCH   =     8    internal setting for exchange type
   VOSKOWN=      0    Vosko Wilk Nusair interpolation
   LHFCALC =     F    Hartree Fock is set to
   LHFONE  =     F    Hartree Fock one center treatment
   AEXX    =    0.0000 exact exchange contribution

 Linear response parameters
   LEPSILON=     F    determine dielectric tensor
   LRPA    =     F    only Hartree local field effects (RPA)
   LNABLA  =     F    use nabla operator in PAW spheres
   LVEL    =     F    velocity operator in full k-point grid
   LINTERFAST=   F  fast interpolation
   KINTER  =     0    interpolate to denser k-point grid
   CSHIFT  =0.1000    complex shift for real part using Kramers Kronig
   OMEGAMAX=  -1.0    maximum frequency
   DEG_THRESHOLD= 0.2000000E-02 threshold for treating states as degnerate
   RTIME   =   -0.100 relaxation time in fs
  (WPLASMAI=    0.000 imaginary part of plasma frequency in eV, 0.658/RTIME)
   DFIELD  = 0.0000000 0.0000000 0.0000000 field for delta impulse in time
 
 Orbital magnetization related:
   ORBITALMAG=     F  switch on orbital magnetization
   LCHIMAG   =     F  perturbation theory with respect to B field
   DQ        =  0.001000  dq finite difference perturbation B field
   LLRAUG    =     F  two centre corrections for induced B field



--------------------------------------------------------------------------------------------------------


 conjugate gradient relaxation of ions
 charge density and potential will be updated during run
 spin polarized calculation
 RMM-DIIS sequential band-by-band and
  variant of blocked Davidson during initial phase
 perform sub-space diagonalisation
    before iterative eigenvector-optimisation
 modified Broyden-mixing scheme, WC =      100.0
 initial mixing is a Kerker type mixing with AMIX =  0.4000 and BMIX =      1.0000
 Hartree-type preconditioning will be used
 using additional bands           34
 real space projection scheme for non local part
 use partial core corrections
 calculate Harris-corrections to forces 
   (improved forces if not selfconsistent)
 use gradient corrections 
 use of overlap-Matrix (Vanderbilt PP)
 Methfessel and Paxton  Order N= 1 SIGMA  =   0.20


--------------------------------------------------------------------------------------------------------


  energy-cutoff  :      520.00
  volume of cell :      182.76
      direct lattice vectors                 reciprocal lattice vectors
     1.787500000  1.787500000 -3.575000000     0.069930070  0.069930070 -0.209790210
     0.000000000 -5.362500000 -1.787500000    -0.017482517 -0.157342657 -0.087412587
    -7.150000000  1.787500000 -1.787500000    -0.122377622  0.017482517 -0.052447552

  length of vectors
     4.378462915  5.652571318  7.583720228     0.231931804  0.180840567  0.134285765


 
 k-points in units of 2pi/SCALE and weight: read from INCAR                         
  -0.00000000 -0.00000000 -0.00000000       0.017
   0.05000000  0.05000000 -0.15000000       0.033
   0.10000000  0.10000000 -0.30000000       0.033
  -0.01562500 -0.14062500 -0.07812500       0.033
   0.03437500 -0.09062500 -0.22812500       0.033
   0.08437500 -0.04062500 -0.37812500       0.033
  -0.11562500 -0.24062500  0.22187500       0.033
  -0.06562500 -0.19062500  0.07187500       0.033
  -0.03125000 -0.28125000 -0.15625000       0.017
   0.01875000 -0.23125000 -0.30625000       0.033
   0.06875000 -0.18125000 -0.45625000       0.033
  -0.14583333  0.02083333 -0.06250000       0.033
  -0.09583333  0.07083333 -0.21250000       0.033
  -0.04583333  0.12083333 -0.36250000       0.033
  -0.24583333 -0.07916667  0.23750000       0.033
  -0.19583333 -0.02916667  0.08750000       0.033
  -0.16145833 -0.11979167 -0.14062500       0.033
  -0.11145833 -0.06979167 -0.29062500       0.033
  -0.06145833 -0.01979167 -0.44062500       0.033
  -0.26145833 -0.21979167  0.15937500       0.033
  -0.21145833 -0.16979167  0.00937500       0.033
  -0.17708333 -0.26041667 -0.21875000       0.033
  -0.12708333 -0.21041667 -0.36875000       0.033
  -0.07708333 -0.16041667 -0.51875000       0.033
  -0.27708333 -0.36041667  0.08125000       0.033
  -0.22708333 -0.31041667 -0.06875000       0.033
  -0.13020833  0.16145833  0.01562500       0.033
  -0.08020833  0.21145833 -0.13437500       0.033
  -0.03020833  0.26145833 -0.28437500       0.033
  -0.23020833  0.06145833  0.31562500       0.033
  -0.18020833  0.11145833  0.16562500       0.033
 
 k-points in reciprocal lattice and weights: read from INCAR                         
   0.00000000  0.00000000  0.00000000       0.017
   0.20000000  0.00000000  0.00000000       0.033
   0.40000000  0.00000000  0.00000000       0.033
   0.00000000  0.25000000  0.00000000       0.033
   0.20000000  0.25000000  0.00000000       0.033
   0.40000000  0.25000000  0.00000000       0.033
  -0.40000000  0.25000000  0.00000000       0.033
  -0.20000000  0.25000000  0.00000000       0.033
   0.00000000  0.50000000  0.00000000       0.017
   0.20000000  0.50000000  0.00000000       0.033
   0.40000000  0.50000000  0.00000000       0.033
   0.00000000  0.00000000  0.33333333       0.033
   0.20000000  0.00000000  0.33333333       0.033
   0.40000000  0.00000000  0.33333333       0.033
  -0.40000000  0.00000000  0.33333333       0.033
  -0.20000000  0.00000000  0.33333333       0.033
   0.00000000  0.25000000  0.33333333       0.033
   0.20000000  0.25000000  0.33333333       0.033
   0.40000000  0.25000000  0.33333333       0.033
  -0.40000000  0.25000000  0.33333333       0.033
  -0.20000000  0.25000000  0.33333333       0.033
   0.00000000  0.50000000  0.33333333       0.033
   0.20000000  0.50000000  0.33333333       0.033
   0.40000000  0.50000000  0.33333333       0.033
  -0.40000000  0.50000000  0.33333333       0.033
  -0.20000000  0.50000000  0.33333333       0.033
   0.00000000 -0.25000000  0.33333333       0.033
   0.20000000 -0.25000000  0.33333333       0.033
   0.40000000 -0.25000000  0.33333333       0.033
  -0.40000000 -0.25000000  0.33333333       0.033
  -0.20000000 -0.25000000  0.33333333       0.033
 
 position of ions in fractional coordinates (direct lattice) 
   0.24784246  0.69183986  0.81619061
   0.00141830  0.24969196  0.75123883
   0.24857203  0.93778406  0.56125300
   0.00212826  0.49566495  0.49630691
   0.99492219  0.74804286  0.23663854
   0.73882269  0.55871200  0.94262936
   0.51203772  0.12908769  0.88023535
   0.73761386  0.80891707  0.69143537
   0.51241458  0.37856364  0.62109083
   0.51114578  0.62879964  0.36986594
   0.25444939  0.18534464  0.30941062
   0.50656219  0.87600830  0.13198011
   0.25505844  0.43946104  0.07588090
   0.99553766  0.00214025  0.00306873
   0.73799933  0.05843130  0.43227475
   0.74347511  0.31151074  0.18050016
 
 position of ions in cartesian coordinates  (Angst):
  -5.39274443 -1.80803216 -3.58164125
  -5.36882241  0.00640147 -1.79423421
  -3.56863645 -3.58130478 -3.56817376
  -3.54479014 -1.76705040 -1.78075824
   0.08645783 -1.80996506 -5.31696483
  -5.41915438  0.00950244 -5.32493879
  -5.37841531  1.79645536 -3.63469976
  -3.62527811 -1.78339227 -5.31884955
  -3.52485834 -0.00390662 -3.61876451
  -1.73086836 -1.79712963 -3.61246087
  -1.75745762  0.01398914 -1.79403161
  -0.03817789 -3.55620015 -3.61273911
  -0.08663149 -1.76505575 -1.83300765
   1.75758219  1.77353185 -3.56835818
  -1.77159067  1.77852707 -3.51548466
   0.03838561 -0.01887052 -3.53739302
 


--------------------------------------------------------------------------------------------------------


 k-point  1 :   0.0000 0.0000 0.0000  plane waves:    4921
 k-point  2 :   0.2000 0.0000 0.0000  plane waves:    4932
 k-point  3 :   0.4000 0.0000 0.0000  plane waves:    4929
 k-point  4 :   0.0000 0.2500 0.0000  plane waves:    4912
 k-point  5 :   0.2000 0.2500 0.0000  plane waves:    4903
 k-point  6 :   0.4000 0.2500 0.0000  plane waves:    4921
 k-point  7 :  -0.4000 0.2500 0.0000  plane waves:    4937
 k-point  8 :  -0.2000 0.2500 0.0000  plane waves:    4909
 k-point  9 :   0.0000 0.5000 0.0000  plane waves:    4912
 k-point 10 :   0.2000 0.5000 0.0000  plane waves:    4902
 k-point 11 :   0.4000 0.5000 0.0000  plane waves:    4914
 k-point 12 :   0.0000 0.0000 0.3333  plane waves:    4925
 k-point 13 :   0.2000 0.0000 0.3333  plane waves:    4919
 k-point 14 :   0.4000 0.0000 0.3333  plane waves:    4934
 k-point 15 :  -0.4000 0.0000 0.3333  plane waves:    4924
 k-point 16 :  -0.2000 0.0000 0.3333  plane waves:    4928
 k-point 17 :   0.0000 0.2500 0.3333  plane waves:    4924
 k-point 18 :   0.2000 0.2500 0.3333  plane waves:    4912
 k-point 19 :   0.4000 0.2500 0.3333  plane waves:    4919
 k-point 20 :  -0.4000 0.2500 0.3333  plane waves:    4938
 k-point 21 :  -0.2000 0.2500 0.3333  plane waves:    4934
 k-point 22 :   0.0000 0.5000 0.3333  plane waves:    4898
 k-point 23 :   0.2000 0.5000 0.3333  plane waves:    4903
 k-point 24 :   0.4000 0.5000 0.3333  plane waves:    4914
 k-point 25 :  -0.4000 0.5000 0.3333  plane waves:    4907
 k-point 26 :  -0.2000 0.5000 0.3333  plane waves:    4929
 k-point 27 :   0.0000-0.2500 0.3333  plane waves:    4911
 k-point 28 :   0.2000-0.2500 0.3333  plane waves:    4924
 k-point 29 :   0.4000-0.2500 0.3333  plane waves:    4939
 k-point 30 :  -0.4000-0.2500 0.3333  plane waves:    4926
 k-point 31 :  -0.2000-0.2500 0.3333  plane waves:    4915

 maximum and minimum number of plane-waves per node :       635      594

 maximum number of plane-waves:      4939
 maximum index in each direction: 
   IXMAX=    8   IYMAX=   10   IZMAX=   14
   IXMIN=   -8   IYMIN=  -11   IZMIN=  -14


 real space projection operators:
  total allocation   :      14659.31 KBytes
  max/ min on nodes  :       2096.02       1562.48


 parallel 3D FFT for wavefunctions:
    minimum data exchange during FFTs selected (reduces bandwidth)
 parallel 3D FFT for charge:
    minimum data exchange during FFTs selected (reduces bandwidth)


 total amount of memory used by VASP MPI-rank0    61110. kBytes
=======================================================================

   base      :      30000. kBytes
   nonlr-proj:       4427. kBytes
   fftplans  :       1321. kBytes
   grid      :       3242. kBytes
   one-center:         62. kBytes
   wavefun   :      22058. kBytes
 
     INWAV:  cpu time    0.0010: real time    0.0002
 Broyden mixing: mesh for mixing (old mesh)
   NGX = 17   NGY = 21   NGZ = 29
  (NGX  = 72   NGY  = 84   NGZ  =112)
  gives a total of  10353 points

 initial charge density was supplied:
 charge density of overlapping atoms calculated
 number of electron     136.0000000 magnetization      40.0000000
 keeping initial charge density in first step


--------------------------------------------------------------------------------------------------------


 Maximum index for non-local projection operator         1054
 Maximum index for augmentation-charges          715 (set IRDMAX)


--------------------------------------------------------------------------------------------------------


 First call to EWALD:  gamma=   0.312
 Maximum number of real-space cells 3x 3x 2
 Maximum number of reciprocal cells 2x 3x 4

    FEWALD:  cpu time    0.0020: real time    0.0015


--------------------------------------- Iteration      1(   1)  ---------------------------------------


    POTLOK:  cpu time    0.0440: real time    0.0504
    SETDIJ:  cpu time    0.0100: real time    0.0093
     EDDAV:  cpu time    7.5189: real time    7.5322
       DOS:  cpu time    0.0070: real time    0.0094
    --------------------------------------------
      LOOP:  cpu time    7.5798: real time    7.6013

 eigenvalue-minimisations  : 12747
 total energy-change (2. order) : 0.1205570E+04  (-0.5594819E+04)
 number of electron     136.0000000 magnetization      40.0000000
 augmentation part      136.0000000 magnetization      40.0000000

 Free energy of the ion-electron system (eV)
  ---------------------------------------------------
  alpha Z        PSCENC =       923.24942624
  Ewald energy   TEWEN  =    -10720.20531648
  -Hartree energ DENC   =     -2419.06551530
  -exchange      EXHF   =         0.00000000
  -V(xc)+E(xc)   XCENC  =       187.18053112
  PAW double counting   =     10496.44389667   -10856.50629440
  entropy T*S    EENTRO =        -0.00195308
  eigenvalues    EBANDS =      2152.03937799
  atomic energy  EATOM  =     11442.43584605
  Solvation  Ediel_sol  =         0.00000000
  ---------------------------------------------------
  free energy    TOTEN  =      1205.56999881 eV

  energy without entropy =     1205.57195189  energy(sigma->0) =     1205.57064983


--------------------------------------------------------------------------------------------------------




--------------------------------------- Iteration      1(   2)  ---------------------------------------


     EDDAV:  cpu time    7.3739: real time    7.4684
       DOS:  cpu time    0.0100: real time    0.0089
    --------------------------------------------
      LOOP:  cpu time    7.3839: real time    7.4774

 eigenvalue-minimisations  : 12648
 total energy-change (2. order) :-0.1201211E+04  (-0.1130774E+04)
 number of electron     136.0000000 magnetization      40.0000000
 augmentation part      136.0000000 magnetization      40.0000000

 Free energy of the ion-electron system (eV)
  ---------------------------------------------------
  alpha Z        PSCENC =       923.24942624
  Ewald energy   TEWEN  =    -10720.20531648
  -Hartree energ DENC   =     -2419.06551530
  -exchange      EXHF   =         0.00000000
  -V(xc)+E(xc)   XCENC  =       187.18053112
  PAW double counting   =     10496.44389667   -10856.50629440
  entropy T*S    EENTRO =         0.00352320
  eigenvalues    EBANDS =       950.82272355
  atomic energy  EATOM  =     11442.43584605
  Solvation  Ediel_sol  =         0.00000000
  ---------------------------------------------------
  free energy    TOTEN  =         4.35882064 eV

  energy without entropy =        4.35529745  energy(sigma->0) =        4.35764624


--------------------------------------------------------------------------------------------------------




--------------------------------------- Iteration      1(   3)  ---------------------------------------


     EDDAV:  cpu time    7.4979: real time    7.5894
       DOS:  cpu time    0.0110: real time    0.0103
    --------------------------------------------
      LOOP:  cpu time    7.5089: real time    7.5997

 eigenvalue-minimisations  : 12648
 total energy-change (2. order) :-0.1340048E+03  (-0.1094162E+03)
 number of electron     136.0000000 magnetization      40.0000000
 augmentation part      136.0000000 magnetization      40.0000000

 Free energy of the ion-electron system (eV)
  ---------------------------------------------------
  alpha Z        PSCENC =       923.24942624
  Ewald energy   TEWEN  =    -10720.20531648
  -Hartree energ DENC   =     -2419.06551530
  -exchange      EXHF   =         0.00000000
  -V(xc)+E(xc)   XCENC  =       187.18053112
  PAW double counting   =     10496.44389667   -10856.50629440
  entropy T*S    EENTRO =        -0.03781192
  eigenvalues    EBANDS =       816.85925002
  atomic energy  EATOM  =     11442.43584605
  Solvation  Ediel_sol  =         0.00000000
  ---------------------------------------------------
  free energy    TOTEN  =      -129.64598801 eV

  energy without entropy =     -129.60817609  energy(sigma->0) =     -129.63338404


--------------------------------------------------------------------------------------------------------




--------------------------------------- Iteration      1(   4)  ---------------------------------------


     EDDAV:  cpu time    8.0568: real time    8.1656
       DOS:  cpu time    0.0100: real time    0.0105
    --------------------------------------------
      LOOP:  cpu time    8.0668: real time    8.1761

 eigenvalue-minimisations  : 13905
 total energy-change (2. order) :-0.4939866E+01  (-0.4822858E+01)
 number of electron     136.0000000 magnetization      40.0000000
 augmentation part      136.0000000 magnetization      40.0000000

 Free energy of the ion-electron system (eV)
  ---------------------------------------------------
  alpha Z        PSCENC =       923.24942624
  Ewald energy   TEWEN  =    -10720.20531648
  -Hartree energ DENC   =     -2419.06551530
  -exchange      EXHF   =         0.00000000
  -V(xc)+E(xc)   XCENC  =       187.18053112
  PAW double counting   =     10496.44389667   -10856.50629440
  entropy T*S    EENTRO =        -0.03967957
  eigenvalues    EBANDS =       811.92125215
  atomic energy  EATOM  =     11442.43584605
  Solvation  Ediel_sol  =         0.00000000
  ---------------------------------------------------
  free energy    TOTEN  =      -134.58585352 eV

  energy without entropy =     -134.54617395  energy(sigma->0) =     -134.57262700


--------------------------------------------------------------------------------------------------------




--------------------------------------- Iteration      1(   5)  ---------------------------------------


     EDDAV:  cpu time    8.3047: real time    8.3286
       DOS:  cpu time    0.0110: real time    0.0102
    CHARGE:  cpu time    0.3299: real time    0.3310
    MIXING:  cpu time    0.0010: real time    0.0011
    --------------------------------------------
      LOOP:  cpu time    8.6467: real time    8.6710

 eigenvalue-minimisations  : 14637
 total energy-change (2. order) :-0.5914355E-01  (-0.5908390E-01)
 number of electron     135.9999997 magnetization      31.9965750
 augmentation part       65.5776037 magnetization      24.4005464

 Broyden mixing:
  rms(total) = 0.45222E+01    rms(broyden)= 0.45222E+01
  rms(prec ) = 0.59096E+01
  weight for this iteration     100.00

 Free energy of the ion-electron system (eV)
  ---------------------------------------------------
  alpha Z        PSCENC =       923.24942624
  Ewald energy   TEWEN  =    -10720.20531648
  -Hartree energ DENC   =     -2419.06551530
  -exchange      EXHF   =         0.00000000
  -V(xc)+E(xc)   XCENC  =       187.18053112
  PAW double counting   =     10496.44389667   -10856.50629440
  entropy T*S    EENTRO =        -0.03971312
  eigenvalues    EBANDS =       811.86214216
  atomic energy  EATOM  =     11442.43584605
  Solvation  Ediel_sol  =         0.00000000
  ---------------------------------------------------
  free energy    TOTEN  =      -134.64499707 eV

  energy without entropy =     -134.60528395  energy(sigma->0) =     -134.63175936


--------------------------------------------------------------------------------------------------------




--------------------------------------- Iteration      1(   6)  ---------------------------------------


    POTLOK:  cpu time    0.0350: real time    0.0357
    SETDIJ:  cpu time    0.0100: real time    0.0094
    EDDIAG:  cpu time    1.0088: real time    1.0105
  RMM-DIIS:  cpu time    4.9972: real time    5.0258
    ORTHCH:  cpu time    0.1220: real time    0.1241
       DOS:  cpu time    0.0110: real time    0.0110
    CHARGE:  cpu time    0.3190: real time    0.3224
    MIXING:  cpu time    0.0010: real time    0.0010
    --------------------------------------------
      LOOP:  cpu time    6.5040: real time    6.5399

 eigenvalue-minimisations  : 12648
 total energy-change (2. order) :-0.1260464E+02  (-0.1715996E+02)
 number of electron     135.9999993 magnetization      30.2062547
 augmentation part       77.6335904 magnetization      24.6764410

 Broyden mixing:
  rms(total) = 0.71104E+01    rms(broyden)= 0.71103E+01
  rms(prec ) = 0.12817E+02
  weight for this iteration     100.00

 eigenvalues of (default mixing * dielectric matrix)
  average eigenvalue GAMMA=   0.2751
  0.2751

 Free energy of the ion-electron system (eV)
  ---------------------------------------------------
  alpha Z        PSCENC =       923.24942624
  Ewald energy   TEWEN  =    -10720.20531648
  -Hartree energ DENC   =     -2101.54039155
  -exchange      EXHF   =         0.00000000
  -V(xc)+E(xc)   XCENC  =       167.71384532
  PAW double counting   =     11348.80860174   -11660.95240154
  entropy T*S    EENTRO =        -0.00762413
  eigenvalues    EBANDS =       453.24837265
  atomic energy  EATOM  =     11442.43584605
  Solvation  Ediel_sol  =         0.00000000
  ---------------------------------------------------
  free energy    TOTEN  =      -147.24964170 eV

  energy without entropy =     -147.24201757  energy(sigma->0) =     -147.24710032


--------------------------------------------------------------------------------------------------------




--------------------------------------- Iteration      1(   7)  ---------------------------------------


    POTLOK:  cpu time    0.0350: real time    0.0354
    SETDIJ:  cpu time    0.0090: real time    0.0089
    EDDIAG:  cpu time    1.0158: real time    1.0257
  RMM-DIIS:  cpu time    5.0042: real time    5.0610
    ORTHCH:  cpu time    0.1210: real time    0.1229
       DOS:  cpu time    0.0110: real time    0.0105
    CHARGE:  cpu time    0.3170: real time    0.3198
    MIXING:  cpu time    0.0010: real time    0.0010
    --------------------------------------------
      LOOP:  cpu time    6.5140: real time    6.5854

 eigenvalue-minimisations  : 12648
 total energy-change (2. order) : 0.2220618E+01  (-0.4177118E+01)
 number of electron     136.0000001 magnetization      26.3245913
 augmentation part       77.1124712 magnetization      21.5893227

 Broyden mixing:
  rms(total) = 0.72742E+01    rms(broyden)= 0.72741E+01
  rms(prec ) = 0.13690E+02
  weight for this iteration     100.00

 eigenvalues of (default mixing * dielectric matrix)
  average eigenvalue GAMMA=   0.2943
  0.4712  0.1175

 Free energy of the ion-electron system (eV)
  ---------------------------------------------------
  alpha Z        PSCENC =       923.24942624
  Ewald energy   TEWEN  =    -10720.20531648
  -Hartree energ DENC   =     -2136.42454960
  -exchange      EXHF   =         0.00000000
  -V(xc)+E(xc)   XCENC  =       168.19015576
  PAW double counting   =     11573.91101596   -11903.46113073
  entropy T*S    EENTRO =        -0.00420129
  eigenvalues    EBANDS =       507.27973049
  atomic energy  EATOM  =     11442.43584605
  Solvation  Ediel_sol  =         0.00000000
  ---------------------------------------------------
  free energy    TOTEN  =      -145.02902360 eV

  energy without entropy =     -145.02482231  energy(sigma->0) =     -145.02762317


--------------------------------------------------------------------------------------------------------




--------------------------------------- Iteration      1(   8)  ---------------------------------------


    POTLOK:  cpu time    0.0350: real time    0.0362
    SETDIJ:  cpu time    0.0090: real time    0.0089
    EDDIAG:  cpu time    1.0348: real time    1.0458
  RMM-DIIS:  cpu time    5.0482: real time    5.0792
    ORTHCH:  cpu time    0.1220: real time    0.1230
       DOS:  cpu time    0.0110: real time    0.0108
    CHARGE:  cpu time    0.3210: real time    0.3215
    MIXING:  cpu time    0.0010: real time    0.0010
    --------------------------------------------
      LOOP:  cpu time    6.5820: real time    6.6263

 eigenvalue-minimisations  : 12648
 total energy-change (2. order) : 0.7468837E+01  (-0.2808945E+01)
 number of electron     135.9999990 magnetization      24.5849463
 augmentation part       73.1440257 magnetization      20.2124316

 Broyden mixing:
  rms(total) = 0.72885E+01    rms(broyden)= 0.72884E+01
  rms(prec ) = 0.12574E+02
  weight for this iteration     100.00

 eigenvalues of (default mixing * dielectric matrix)
  average eigenvalue GAMMA=   0.3070
  0.5866  0.2270  0.1073

 Free energy of the ion-electron system (eV)
  ---------------------------------------------------
  alpha Z        PSCENC =       923.24942624
  Ewald energy   TEWEN  =    -10720.20531648
  -Hartree energ DENC   =     -2183.32911128
  -exchange      EXHF   =         0.00000000
  -V(xc)+E(xc)   XCENC  =       168.65430170
  PAW double counting   =     11997.83947704   -12354.97055027
  entropy T*S    EENTRO =        -0.00211490
  eigenvalues    EBANDS =       588.76785559
  atomic energy  EATOM  =     11442.43584605
  Solvation  Ediel_sol  =         0.00000000
  ---------------------------------------------------
  free energy    TOTEN  =      -137.56018632 eV

  energy without entropy =     -137.55807142  energy(sigma->0) =     -137.55948135


--------------------------------------------------------------------------------------------------------




--------------------------------------- Iteration      1(   9)  ---------------------------------------


    POTLOK:  cpu time    0.0350: real time    0.0358
    SETDIJ:  cpu time    0.0100: real time    0.0090
    EDDIAG:  cpu time    1.0398: real time    1.0433
  RMM-DIIS:  cpu time    5.0032: real time    5.0122
    ORTHCH:  cpu time    0.1240: real time    0.1240
       DOS:  cpu time    0.0110: real time    0.0108
    CHARGE:  cpu time    0.3359: real time    0.3373
    MIXING:  cpu time    0.0020: real time    0.0010
    --------------------------------------------
      LOOP:  cpu time    6.5610: real time    6.5734

 eigenvalue-minimisations  : 12648
 total energy-change (2. order) : 0.1829155E+02  (-0.1799426E+01)
 number of electron     135.9999998 magnetization      21.5186927
 augmentation part       73.8735175 magnetization      16.4688188

 Broyden mixing:
  rms(total) = 0.19625E+01    rms(broyden)= 0.19622E+01
  rms(prec ) = 0.32638E+01
  weight for this iteration     100.00

 eigenvalues of (default mixing * dielectric matrix)
  average eigenvalue GAMMA=   0.4695
  1.0807  0.5868  0.1052  0.1052

 Free energy of the ion-electron system (eV)
  ---------------------------------------------------
  alpha Z        PSCENC =       923.24942624
  Ewald energy   TEWEN  =    -10720.20531648
  -Hartree energ DENC   =     -2163.76484590
  -exchange      EXHF   =         0.00000000
  -V(xc)+E(xc)   XCENC  =       167.51622421
  PAW double counting   =     12138.45056377   -12497.65983419
  entropy T*S    EENTRO =        -0.03712728
  eigenvalues    EBANDS =       590.74643108
  atomic energy  EATOM  =     11442.43584605
  Solvation  Ediel_sol  =         0.00000000
  ---------------------------------------------------
  free energy    TOTEN  =      -119.26863250 eV

  energy without entropy =     -119.23150522  energy(sigma->0) =     -119.25625674


--------------------------------------------------------------------------------------------------------




--------------------------------------- Iteration      1(  10)  ---------------------------------------


    POTLOK:  cpu time    0.0350: real time    0.0355
    SETDIJ:  cpu time    0.0100: real time    0.0089
    EDDIAG:  cpu time    1.0088: real time    1.0108
  RMM-DIIS:  cpu time    4.9942: real time    5.0039
    ORTHCH:  cpu time    0.1280: real time    0.1286
       DOS:  cpu time    0.0120: real time    0.0107
    CHARGE:  cpu time    0.3160: real time    0.3167
    MIXING:  cpu time    0.0010: real time    0.0011
    --------------------------------------------
      LOOP:  cpu time    6.5050: real time    6.5163

 eigenvalue-minimisations  : 12648
 total energy-change (2. order) :-0.5279785E+01  (-0.5466563E+00)
 number of electron     135.9999995 magnetization      20.3109156
 augmentation part       73.9715951 magnetization      17.2858484

 Broyden mixing:
  rms(total) = 0.41100E+01    rms(broyden)= 0.41100E+01
  rms(prec ) = 0.68276E+01
  weight for this iteration     100.00

 eigenvalues of (default mixing * dielectric matrix)
  average eigenvalue GAMMA=   0.4223
  1.1992  0.5644  0.1090  0.1090  0.1299

 Free energy of the ion-electron system (eV)
  ---------------------------------------------------
  alpha Z        PSCENC =       923.24942624
  Ewald energy   TEWEN  =    -10720.20531648
  -Hartree energ DENC   =     -2152.87004654
  -exchange      EXHF   =         0.00000000
  -V(xc)+E(xc)   XCENC  =       166.92236016
  PAW double counting   =     12433.79045244   -12802.51700993
  entropy T*S    EENTRO =         0.01169207
  eigenvalues    EBANDS =       584.63417829
  atomic energy  EATOM  =     11442.43584605
  Solvation  Ediel_sol  =         0.00000000
  ---------------------------------------------------
  free energy    TOTEN  =      -124.54841771 eV

  energy without entropy =     -124.56010978  energy(sigma->0) =     -124.55231507


--------------------------------------------------------------------------------------------------------




--------------------------------------- Iteration      1(  11)  ---------------------------------------


    POTLOK:  cpu time    0.0360: real time    0.0357
    SETDIJ:  cpu time    0.0090: real time    0.0090
    EDDIAG:  cpu time    1.0158: real time    1.0164
  RMM-DIIS:  cpu time    4.9712: real time    4.9799
    ORTHCH:  cpu time    0.1240: real time    0.1247
       DOS:  cpu time    0.0110: real time    0.0107
    CHARGE:  cpu time    0.3150: real time    0.3154
    MIXING:  cpu time    0.0020: real time    0.0011
    --------------------------------------------
      LOOP:  cpu time    6.4840: real time    6.4929

 eigenvalue-minimisations  : 12648
 total energy-change (2. order) : 0.6224937E+01  (-0.3058252E+00)
 number of electron     135.9999997 magnetization      19.4924736
 augmentation part       74.1111169 magnetization      15.3885320

 Broyden mixing:
  rms(total) = 0.10987E+01    rms(broyden)= 0.10985E+01
  rms(prec ) = 0.19085E+01
  weight for this iteration     100.00

 eigenvalues of (default mixing * dielectric matrix)
  average eigenvalue GAMMA=   0.4836
  1.3245  0.6304  0.6304  0.1047  0.1047  0.1068

 Free energy of the ion-electron system (eV)
  ---------------------------------------------------
  alpha Z        PSCENC =       923.24942624
  Ewald energy   TEWEN  =    -10720.20531648
  -Hartree energ DENC   =     -2146.31996171
  -exchange      EXHF   =         0.00000000
  -V(xc)+E(xc)   XCENC  =       166.19101347
  PAW double counting   =     12520.15098689   -12890.78507959
  entropy T*S    EENTRO =        -0.02616634
  eigenvalues    EBANDS =       586.98577061
  atomic energy  EATOM  =     11442.43584605
  Solvation  Ediel_sol  =         0.00000000
  ---------------------------------------------------
  free energy    TOTEN  =      -118.32348089 eV

  energy without entropy =     -118.29731455  energy(sigma->0) =     -118.31475878


--------------------------------------------------------------------------------------------------------




--------------------------------------- Iteration      1(  12)  ---------------------------------------


    POTLOK:  cpu time    0.0350: real time    0.0356
    SETDIJ:  cpu time    0.0090: real time    0.0090
    EDDIAG:  cpu time    1.0328: real time    1.0338
  RMM-DIIS:  cpu time    5.0142: real time    5.0233
    ORTHCH:  cpu time    0.1240: real time    0.1245
       DOS:  cpu time    0.0100: real time    0.0106
    CHARGE:  cpu time    0.3150: real time    0.3151
    MIXING:  cpu time    0.0020: real time    0.0012
    --------------------------------------------
      LOOP:  cpu time    6.5420: real time    6.5530

 eigenvalue-minimisations  : 12648
 total energy-change (2. order) :-0.3512988E+00  (-0.6290162E-01)
 number of electron     135.9999997 magnetization      19.1109222
 augmentation part       74.1821621 magnetization      15.3439800

 Broyden mixing:
  rms(total) = 0.14276E+01    rms(broyden)= 0.14276E+01
  rms(prec ) = 0.24692E+01
  weight for this iteration     100.00

 eigenvalues of (default mixing * dielectric matrix)
  average eigenvalue GAMMA=   0.4367
  1.3376  0.6459  0.6459  0.1041  0.1041  0.1140  0.1055

 Free energy of the ion-electron system (eV)
  ---------------------------------------------------
  alpha Z        PSCENC =       923.24942624
  Ewald energy   TEWEN  =    -10720.20531648
  -Hartree energ DENC   =     -2142.61699732
  -exchange      EXHF   =         0.00000000
  -V(xc)+E(xc)   XCENC  =       166.05064084
  PAW double counting   =     12617.04295801   -12989.95294129
  entropy T*S    EENTRO =        -0.01211108
  eigenvalues    EBANDS =       585.33371532
  atomic energy  EATOM  =     11442.43584605
  Solvation  Ediel_sol  =         0.00000000
  ---------------------------------------------------
  free energy    TOTEN  =      -118.67477973 eV

  energy without entropy =     -118.66266865  energy(sigma->0) =     -118.67074270


--------------------------------------------------------------------------------------------------------




--------------------------------------- Iteration      1(  13)  ---------------------------------------


    POTLOK:  cpu time    0.0370: real time    0.0384
    SETDIJ:  cpu time    0.0090: real time    0.0090
    EDDIAG:  cpu time    1.0358: real time    1.0386
  RMM-DIIS:  cpu time    4.9392: real time    4.9587
    ORTHCH:  cpu time    0.1230: real time    0.1236
       DOS:  cpu time    0.0110: real time    0.0115
    CHARGE:  cpu time    0.3150: real time    0.3159
    MIXING:  cpu time    0.0020: real time    0.0012
    --------------------------------------------
      LOOP:  cpu time    6.4720: real time    6.4969

 eigenvalue-minimisations  : 12648
 total energy-change (2. order) : 0.7149467E+00  (-0.2972583E-01)
 number of electron     135.9999996 magnetization      19.3259174
 augmentation part       74.1858711 magnetization      15.5761840

 Broyden mixing:
  rms(total) = 0.59689E+00    rms(broyden)= 0.59687E+00
  rms(prec ) = 0.77737E+00
  weight for this iteration     100.00

 eigenvalues of (default mixing * dielectric matrix)
  average eigenvalue GAMMA=   0.4697
  1.2121  0.8265  0.8265  0.4768  0.1042  0.1042  0.1115  0.0960

 Free energy of the ion-electron system (eV)
  ---------------------------------------------------
  alpha Z        PSCENC =       923.24942624
  Ewald energy   TEWEN  =    -10720.20531648
  -Hartree energ DENC   =     -2140.67939655
  -exchange      EXHF   =         0.00000000
  -V(xc)+E(xc)   XCENC  =       166.01235983
  PAW double counting   =     12668.24364865   -13042.29643932
  entropy T*S    EENTRO =        -0.02283796
  eigenvalues    EBANDS =       585.30287655
  atomic energy  EATOM  =     11442.43584605
  Solvation  Ediel_sol  =         0.00000000
  ---------------------------------------------------
  free energy    TOTEN  =      -117.95983300 eV

  energy without entropy =     -117.93699504  energy(sigma->0) =     -117.95222035


--------------------------------------------------------------------------------------------------------




--------------------------------------- Iteration      1(  14)  ---------------------------------------


    POTLOK:  cpu time    0.0350: real time    0.0358
    SETDIJ:  cpu time    0.0100: real time    0.0091
    EDDIAG:  cpu time    1.0378: real time    1.0421
  RMM-DIIS:  cpu time    4.9452: real time    4.9586
    ORTHCH:  cpu time    0.1250: real time    0.1261
       DOS:  cpu time    0.0120: real time    0.0108
    CHARGE:  cpu time    0.3250: real time    0.3252
    MIXING:  cpu time    0.0010: real time    0.0013
    --------------------------------------------
      LOOP:  cpu time    6.4910: real time    6.5091

 eigenvalue-minimisations  : 12648
 total energy-change (2. order) :-0.1589501E+00  (-0.1293420E-01)
 number of electron     135.9999996 magnetization      19.5489697
 augmentation part       74.2027429 magnetization      15.8389317

 Broyden mixing:
  rms(total) = 0.70074E+00    rms(broyden)= 0.70074E+00
  rms(prec ) = 0.10081E+01
  weight for this iteration     100.00

 eigenvalues of (default mixing * dielectric matrix)
  average eigenvalue GAMMA=   0.4357
  1.1948  0.8671  0.8671  0.4774  0.1049  0.1049  0.1213  0.0919  0.0919

 Free energy of the ion-electron system (eV)
  ---------------------------------------------------
  alpha Z        PSCENC =       923.24942624
  Ewald energy   TEWEN  =    -10720.20531648
  -Hartree energ DENC   =     -2140.21692206
  -exchange      EXHF   =         0.00000000
  -V(xc)+E(xc)   XCENC  =       166.36090773
  PAW double counting   =     12700.94452806   -13075.61018792
  entropy T*S    EENTRO =        -0.02323567
  eigenvalues    EBANDS =       584.94617099
  atomic energy  EATOM  =     11442.43584605
  Solvation  Ediel_sol  =         0.00000000
  ---------------------------------------------------
  free energy    TOTEN  =      -118.11878306 eV

  energy without entropy =     -118.09554739  energy(sigma->0) =     -118.11103784


--------------------------------------------------------------------------------------------------------




--------------------------------------- Iteration      1(  15)  ---------------------------------------


    POTLOK:  cpu time    0.0410: real time    0.0417
    SETDIJ:  cpu time    0.0100: real time    0.0090
    EDDIAG:  cpu time    1.0128: real time    1.0152
  RMM-DIIS:  cpu time    4.9562: real time    4.9644
    ORTHCH:  cpu time    0.1230: real time    0.1239
       DOS:  cpu time    0.0120: real time    0.0110
    CHARGE:  cpu time    0.3140: real time    0.3143
    MIXING:  cpu time    0.0010: real time    0.0013
    --------------------------------------------
      LOOP:  cpu time    6.4700: real time    6.4808

 eigenvalue-minimisations  : 12648
 total energy-change (2. order) : 0.2708515E-01  (-0.6601096E-02)
 number of electron     135.9999996 magnetization      19.7529646
 augmentation part       74.2399788 magnetization      15.9893856

 Broyden mixing:
  rms(total) = 0.50765E+00    rms(broyden)= 0.50765E+00
  rms(prec ) = 0.61443E+00
  weight for this iteration     100.00

 eigenvalues of (default mixing * dielectric matrix)
  average eigenvalue GAMMA=   0.4564
  1.2255  0.8774  0.8774  0.5264  0.5264  0.1041  0.1041  0.1141  0.1141  0.0944

 Free energy of the ion-electron system (eV)
  ---------------------------------------------------
  alpha Z        PSCENC =       923.24942624
  Ewald energy   TEWEN  =    -10720.20531648
  -Hartree energ DENC   =     -2139.75743064
  -exchange      EXHF   =         0.00000000
  -V(xc)+E(xc)   XCENC  =       166.61862971
  PAW double counting   =     12720.65358821   -13095.61684647
  entropy T*S    EENTRO =        -0.02359034
  eigenvalues    EBANDS =       584.55399582
  atomic energy  EATOM  =     11442.43584605
  Solvation  Ediel_sol  =         0.00000000
  ---------------------------------------------------
  free energy    TOTEN  =      -118.09169791 eV

  energy without entropy =     -118.06810757  energy(sigma->0) =     -118.08383446


--------------------------------------------------------------------------------------------------------




--------------------------------------- Iteration      1(  16)  ---------------------------------------


    POTLOK:  cpu time    0.0350: real time    0.0356
    SETDIJ:  cpu time    0.0100: real time    0.0091
    EDDIAG:  cpu time    1.0078: real time    1.0096
  RMM-DIIS:  cpu time    4.9552: real time    4.9682
    ORTHCH:  cpu time    0.1220: real time    0.1221
       DOS:  cpu time    0.0100: real time    0.0103
    CHARGE:  cpu time    0.3100: real time    0.3105
    MIXING:  cpu time    0.0020: real time    0.0015
    --------------------------------------------
      LOOP:  cpu time    6.4520: real time    6.4668

 eigenvalue-minimisations  : 12648
 total energy-change (2. order) :-0.4184627E-01  (-0.2120802E-02)
 number of electron     135.9999996 magnetization      20.0590503
 augmentation part       74.2440101 magnetization      16.2684891

 Broyden mixing:
  rms(total) = 0.53346E+00    rms(broyden)= 0.53345E+00
  rms(prec ) = 0.66417E+00
  weight for this iteration     100.00

 eigenvalues of (default mixing * dielectric matrix)
  average eigenvalue GAMMA=   0.4283
  1.2341  0.8982  0.8982  0.5483  0.5483  0.1040  0.1040  0.1195  0.1137  0.0946
  0.0489

 Free energy of the ion-electron system (eV)
  ---------------------------------------------------
  alpha Z        PSCENC =       923.24942624
  Ewald energy   TEWEN  =    -10720.20531648
  -Hartree energ DENC   =     -2139.80937355
  -exchange      EXHF   =         0.00000000
  -V(xc)+E(xc)   XCENC  =       166.76348239
  PAW double counting   =     12729.41515477   -13104.57606997
  entropy T*S    EENTRO =        -0.02293672
  eigenvalues    EBANDS =       584.61624310
  atomic energy  EATOM  =     11442.43584605
  Solvation  Ediel_sol  =         0.00000000
  ---------------------------------------------------
  free energy    TOTEN  =      -118.13354418 eV

  energy without entropy =     -118.11060746  energy(sigma->0) =     -118.12589861


--------------------------------------------------------------------------------------------------------




--------------------------------------- Iteration      1(  17)  ---------------------------------------


    POTLOK:  cpu time    0.0360: real time    0.0357
    SETDIJ:  cpu time    0.0090: real time    0.0091
    EDDIAG:  cpu time    1.0078: real time    1.0098
  RMM-DIIS:  cpu time    4.9203: real time    4.9286
    ORTHCH:  cpu time    0.1230: real time    0.1236
       DOS:  cpu time    0.0110: real time    0.0111
    CHARGE:  cpu time    0.3110: real time    0.3116
    MIXING:  cpu time    0.0020: real time    0.0014
    --------------------------------------------
      LOOP:  cpu time    6.4200: real time    6.4308

 eigenvalue-minimisations  : 12648
 total energy-change (2. order) :-0.3590496E-01  (-0.9980838E-03)
 number of electron     135.9999996 magnetization      20.0255360
 augmentation part       74.2460487 magnetization      16.1830037

 Broyden mixing:
  rms(total) = 0.52717E+00    rms(broyden)= 0.52717E+00
  rms(prec ) = 0.62198E+00
  weight for this iteration     100.00

 eigenvalues of (default mixing * dielectric matrix)
  average eigenvalue GAMMA=   0.4785
  1.1729  1.0624  1.0624  0.6996  0.5608  0.5608  0.1042  0.1042  0.1194  0.1096
  0.0962  0.0889

 Free energy of the ion-electron system (eV)
  ---------------------------------------------------
  alpha Z        PSCENC =       923.24942624
  Ewald energy   TEWEN  =    -10720.20531648
  -Hartree energ DENC   =     -2139.92046301
  -exchange      EXHF   =         0.00000000
  -V(xc)+E(xc)   XCENC  =       166.96450023
  PAW double counting   =     12739.57223286   -13114.98036362
  entropy T*S    EENTRO =        -0.02197491
  eigenvalues    EBANDS =       584.73666350
  atomic energy  EATOM  =     11442.43584605
  Solvation  Ediel_sol  =         0.00000000
  ---------------------------------------------------
  free energy    TOTEN  =      -118.16944914 eV

  energy without entropy =     -118.14747423  energy(sigma->0) =     -118.16212417


--------------------------------------------------------------------------------------------------------




--------------------------------------- Iteration      1(  18)  ---------------------------------------


    POTLOK:  cpu time    0.0360: real time    0.0359
    SETDIJ:  cpu time    0.0090: real time    0.0090
    EDDIAG:  cpu time    1.0308: real time    1.0319
  RMM-DIIS:  cpu time    4.9293: real time    4.9386
    ORTHCH:  cpu time    0.1220: real time    0.1223
       DOS:  cpu time    0.0110: real time    0.0109
    CHARGE:  cpu time    0.3110: real time    0.3106
    MIXING:  cpu time    0.0020: real time    0.0016
    --------------------------------------------
      LOOP:  cpu time    6.4510: real time    6.4610

 eigenvalue-minimisations  : 12648
 total energy-change (2. order) : 0.1933362E-02  (-0.6239259E-04)
 number of electron     135.9999996 magnetization      19.2972306
 augmentation part       74.2445794 magnetization      15.4658234

 Broyden mixing:
  rms(total) = 0.53176E+00    rms(broyden)= 0.53176E+00
  rms(prec ) = 0.63427E+00
  weight for this iteration     100.00

 eigenvalues of (default mixing * dielectric matrix)
  average eigenvalue GAMMA=   0.5821
  1.8166  1.4007  1.4007  1.0233  0.5999  0.5999  0.1042  0.1042  0.1256  0.1106
  0.1027  0.0944  0.0840

 Free energy of the ion-electron system (eV)
  ---------------------------------------------------
  alpha Z        PSCENC =       923.24942624
  Ewald energy   TEWEN  =    -10720.20531648
  -Hartree energ DENC   =     -2139.90489132
  -exchange      EXHF   =         0.00000000
  -V(xc)+E(xc)   XCENC  =       166.94460956
  PAW double counting   =     12738.87297512   -13114.26473629
  entropy T*S    EENTRO =        -0.02203629
  eigenvalues    EBANDS =       584.72660763
  atomic energy  EATOM  =     11442.43584605
  Solvation  Ediel_sol  =         0.00000000
  ---------------------------------------------------
  free energy    TOTEN  =      -118.16751578 eV

  energy without entropy =     -118.14547949  energy(sigma->0) =     -118.16017035


--------------------------------------------------------------------------------------------------------




--------------------------------------- Iteration      1(  19)  ---------------------------------------


    POTLOK:  cpu time    0.0350: real time    0.0357
    SETDIJ:  cpu time    0.0090: real time    0.0090
    EDDIAG:  cpu time    1.0308: real time    1.0316
  RMM-DIIS:  cpu time    4.9133: real time    4.9226
    ORTHCH:  cpu time    0.1220: real time    0.1223
       DOS:  cpu time    0.0120: real time    0.0108
    CHARGE:  cpu time    0.3240: real time    0.3250
    MIXING:  cpu time    0.0020: real time    0.0016
    --------------------------------------------
      LOOP:  cpu time    6.4480: real time    6.4585

 eigenvalue-minimisations  : 12648
 total energy-change (2. order) : 0.6234662E-01  (-0.2474999E-02)
 number of electron     135.9999996 magnetization      18.6294115
 augmentation part       74.2492646 magnetization      14.9709851

 Broyden mixing:
  rms(total) = 0.55901E+00    rms(broyden)= 0.55900E+00
  rms(prec ) = 0.72279E+00
  weight for this iteration     100.00

 eigenvalues of (default mixing * dielectric matrix)
  average eigenvalue GAMMA=   0.5862
  2.1851  1.4731  1.4731  1.0059  0.6046  0.6046  0.1041  0.1041  0.1230  0.1230
  0.1136  0.1136  0.0941  0.0850

 Free energy of the ion-electron system (eV)
  ---------------------------------------------------
  alpha Z        PSCENC =       923.24942624
  Ewald energy   TEWEN  =    -10720.20531648
  -Hartree energ DENC   =     -2139.06779910
  -exchange      EXHF   =         0.00000000
  -V(xc)+E(xc)   XCENC  =       166.57738788
  PAW double counting   =     12731.79223283   -13106.83341509
  entropy T*S    EENTRO =        -0.02169227
  eigenvalues    EBANDS =       583.96816080
  atomic energy  EATOM  =     11442.43584605
  Solvation  Ediel_sol  =         0.00000000
  ---------------------------------------------------
  free energy    TOTEN  =      -118.10516916 eV

  energy without entropy =     -118.08347689  energy(sigma->0) =     -118.09793840


--------------------------------------------------------------------------------------------------------




--------------------------------------- Iteration      1(  20)  ---------------------------------------


    POTLOK:  cpu time    0.0350: real time    0.0357
    SETDIJ:  cpu time    0.0090: real time    0.0090
    EDDIAG:  cpu time    1.0078: real time    1.0092
  RMM-DIIS:  cpu time    4.9083: real time    4.9161
    ORTHCH:  cpu time    0.1400: real time    0.1414
       DOS:  cpu time    0.0110: real time    0.0110
    CHARGE:  cpu time    0.3120: real time    0.3115
    MIXING:  cpu time    0.0020: real time    0.0017
    --------------------------------------------
      LOOP:  cpu time    6.4250: real time    6.4355

 eigenvalue-minimisations  : 12648
 total energy-change (2. order) : 0.9713109E-01  (-0.2802659E-02)
 number of electron     135.9999996 magnetization      18.1464899
 augmentation part       74.2609670 magnetization      14.6345793

 Broyden mixing:
  rms(total) = 0.47650E+00    rms(broyden)= 0.47650E+00
  rms(prec ) = 0.56955E+00
  weight for this iteration     100.00

 eigenvalues of (default mixing * dielectric matrix)
  average eigenvalue GAMMA=   0.6451
  3.0256  1.5910  1.5910  1.0142  0.6157  0.6157  0.3876  0.1380  0.1042  0.1042
  0.1112  0.1112  0.0948  0.0897  0.0816

 Free energy of the ion-electron system (eV)
  ---------------------------------------------------
  alpha Z        PSCENC =       923.24942624
  Ewald energy   TEWEN  =    -10720.20531648
  -Hartree energ DENC   =     -2138.31173934
  -exchange      EXHF   =         0.00000000
  -V(xc)+E(xc)   XCENC  =       166.27404033
  PAW double counting   =     12726.59570051   -13101.35533767
  entropy T*S    EENTRO =        -0.02011219
  eigenvalues    EBANDS =       583.32945449
  atomic energy  EATOM  =     11442.43584605
  Solvation  Ediel_sol  =         0.00000000
  ---------------------------------------------------
  free energy    TOTEN  =      -118.00803807 eV

  energy without entropy =     -117.98792588  energy(sigma->0) =     -118.00133401


--------------------------------------------------------------------------------------------------------




--------------------------------------- Iteration      1(  21)  ---------------------------------------


    POTLOK:  cpu time    0.0350: real time    0.0357
    SETDIJ:  cpu time    0.0090: real time    0.0090
    EDDIAG:  cpu time    1.0098: real time    1.0106
  RMM-DIIS:  cpu time    4.9153: real time    4.9305
    ORTHCH:  cpu time    0.1220: real time    0.1225
       DOS:  cpu time    0.0110: real time    0.0107
    CHARGE:  cpu time    0.3449: real time    0.3449
    MIXING:  cpu time    0.0020: real time    0.0023
    --------------------------------------------
      LOOP:  cpu time    6.4490: real time    6.4661

 eigenvalue-minimisations  : 12648
 total energy-change (2. order) : 0.4937880E-01  (-0.2352204E-02)
 number of electron     135.9999996 magnetization      15.4175168
 augmentation part       74.2667692 magnetization      12.0143795

 Broyden mixing:
  rms(total) = 0.44946E+00    rms(broyden)= 0.44946E+00
  rms(prec ) = 0.54630E+00
  weight for this iteration     100.00

 eigenvalues of (default mixing * dielectric matrix)
  average eigenvalue GAMMA=   0.7272
  4.2030  1.7701  1.7701  1.0602  0.6722  0.6722  0.5408  0.1445  0.1042  0.1042
  0.1222  0.1073  0.1073  0.0945  0.0839  0.0787

 Free energy of the ion-electron system (eV)
  ---------------------------------------------------
  alpha Z        PSCENC =       923.24942624
  Ewald energy   TEWEN  =    -10720.20531648
  -Hartree energ DENC   =     -2137.86534919
  -exchange      EXHF   =         0.00000000
  -V(xc)+E(xc)   XCENC  =       166.07351929
  PAW double counting   =     12723.46922737   -13098.08709073
  entropy T*S    EENTRO =        -0.01926583
  eigenvalues    EBANDS =       582.99034402
  atomic energy  EATOM  =     11442.43584605
  Solvation  Ediel_sol  =         0.00000000
  ---------------------------------------------------
  free energy    TOTEN  =      -117.95865927 eV

  energy without entropy =     -117.93939344  energy(sigma->0) =     -117.95223733


--------------------------------------------------------------------------------------------------------




--------------------------------------- Iteration      1(  22)  ---------------------------------------


    POTLOK:  cpu time    0.0360: real time    0.0373
    SETDIJ:  cpu time    0.0100: real time    0.0095
    EDDIAG:  cpu time    1.0518: real time    1.0537
  RMM-DIIS:  cpu time    4.9183: real time    4.9284
    ORTHCH:  cpu time    0.1220: real time    0.1230
       DOS:  cpu time    0.0110: real time    0.0111
    CHARGE:  cpu time    0.3120: real time    0.3126
    MIXING:  cpu time    0.0020: real time    0.0018
    --------------------------------------------
      LOOP:  cpu time    6.4630: real time    6.4775

 eigenvalue-minimisations  : 12648
 total energy-change (2. order) : 0.1528047E+00  (-0.2465390E-01)
 number of electron     135.9999996 magnetization      16.1613847
 augmentation part       74.2890839 magnetization      13.4852350

 Broyden mixing:
  rms(total) = 0.30473E+00    rms(broyden)= 0.30462E+00
  rms(prec ) = 0.40478E+00
  weight for this iteration     100.00

 eigenvalues of (default mixing * dielectric matrix)
  average eigenvalue GAMMA=   0.6794
  3.7565  1.7263  1.7263  1.1616  0.6507  0.6507  0.4704  0.4704  0.1384  0.1042
  0.1042  0.1177  0.1085  0.1085  0.0940  0.0842  0.0773

 Free energy of the ion-electron system (eV)
  ---------------------------------------------------
  alpha Z        PSCENC =       923.24942624
  Ewald energy   TEWEN  =    -10720.20531648
  -Hartree energ DENC   =     -2135.28333464
  -exchange      EXHF   =         0.00000000
  -V(xc)+E(xc)   XCENC  =       165.34673719
  PAW double counting   =     12709.89823337   -13083.91557580
  entropy T*S    EENTRO =        -0.01026083
  eigenvalues    EBANDS =       580.67839037
  atomic energy  EATOM  =     11442.43584605
  Solvation  Ediel_sol  =         0.00000000
  ---------------------------------------------------
  free energy    TOTEN  =      -117.80585454 eV

  energy without entropy =     -117.79559371  energy(sigma->0) =     -117.80243426


--------------------------------------------------------------------------------------------------------




--------------------------------------- Iteration      1(  23)  ---------------------------------------


    POTLOK:  cpu time    0.0350: real time    0.0358
    SETDIJ:  cpu time    0.0100: real time    0.0091
    EDDIAG:  cpu time    1.0318: real time    1.0353
  RMM-DIIS:  cpu time    4.9183: real time    4.9262
    ORTHCH:  cpu time    0.1220: real time    0.1226
       DOS:  cpu time    0.0120: real time    0.0111
    CHARGE:  cpu time    0.3140: real time    0.3143
    MIXING:  cpu time    0.0020: real time    0.0019
    --------------------------------------------
      LOOP:  cpu time    6.4450: real time    6.4562

 eigenvalue-minimisations  : 12648
 total energy-change (2. order) :-0.3554516E-01  (-0.1707520E-02)
 number of electron     135.9999996 magnetization      16.5394315
 augmentation part       74.2866254 magnetization      13.7103378

 Broyden mixing:
  rms(total) = 0.23005E+00    rms(broyden)= 0.23004E+00
  rms(prec ) = 0.29881E+00
  weight for this iteration     100.00

 eigenvalues of (default mixing * dielectric matrix)
  average eigenvalue GAMMA=   0.6917
  3.5168  1.7976  1.7976  1.3168  0.6514  0.6514  0.6530  0.6530  0.4745  0.1402
  0.1042  0.1042  0.1192  0.1076  0.1076  0.0941  0.0840  0.0776

 Free energy of the ion-electron system (eV)
  ---------------------------------------------------
  alpha Z        PSCENC =       923.24942624
  Ewald energy   TEWEN  =    -10720.20531648
  -Hartree energ DENC   =     -2135.25364108
  -exchange      EXHF   =         0.00000000
  -V(xc)+E(xc)   XCENC  =       165.63726142
  PAW double counting   =     12742.51165718   -13117.43137210
  entropy T*S    EENTRO =        -0.01355650
  eigenvalues    EBANDS =       581.22829558
  atomic energy  EATOM  =     11442.43584605
  Solvation  Ediel_sol  =         0.00000000
  ---------------------------------------------------
  free energy    TOTEN  =      -117.84139970 eV

  energy without entropy =     -117.82784320  energy(sigma->0) =     -117.83688087


--------------------------------------------------------------------------------------------------------




--------------------------------------- Iteration      1(  24)  ---------------------------------------


    POTLOK:  cpu time    0.0350: real time    0.0356
    SETDIJ:  cpu time    0.0100: real time    0.0091
    EDDIAG:  cpu time    1.0288: real time    1.0296
  RMM-DIIS:  cpu time    4.9522: real time    4.9714
    ORTHCH:  cpu time    0.1240: real time    0.1250
       DOS:  cpu time    0.0110: real time    0.0108
    CHARGE:  cpu time    0.3120: real time    0.3134
    MIXING:  cpu time    0.0020: real time    0.0020
    --------------------------------------------
      LOOP:  cpu time    6.4750: real time    6.4969

 eigenvalue-minimisations  : 12648
 total energy-change (2. order) :-0.2737612E-01  (-0.2015737E-02)
 number of electron     135.9999996 magnetization      17.3740363
 augmentation part       74.2832893 magnetization      14.4771548

 Broyden mixing:
  rms(total) = 0.28935E+00    rms(broyden)= 0.28935E+00
  rms(prec ) = 0.47144E+00
  weight for this iteration     100.00

 eigenvalues of (default mixing * dielectric matrix)
  average eigenvalue GAMMA=   0.6995
  3.4299  1.9294  1.9294  1.6193  0.7569  0.7569  0.7110  0.6202  0.4946  0.1403
  0.1042  0.1042  0.1197  0.0941  0.1073  0.1073  0.1044  0.0841  0.0776

 Free energy of the ion-electron system (eV)
  ---------------------------------------------------
  alpha Z        PSCENC =       923.24942624
  Ewald energy   TEWEN  =    -10720.20531648
  -Hartree energ DENC   =     -2135.19991071
  -exchange      EXHF   =         0.00000000
  -V(xc)+E(xc)   XCENC  =       165.81308649
  PAW double counting   =     12763.79883295   -13139.22616596
  entropy T*S    EENTRO =        -0.01491412
  eigenvalues    EBANDS =       581.48033972
[...]


--------------------------------------------------------------------------------------------------------


 soft charge-density along one line, spin component           1
         0         1         2         3         4         5         6         7         8         9
 total charge-density along one line
 
 soft charge-density along one line, spin component           2
         0         1         2         3         4         5         6         7         8         9
 total charge-density along one line
 
 pseudopotential strength for first ion, spin component:           1
 -2.401  -0.014   0.006   0.012   0.007  -3.002  -0.013   0.006
 -0.014  -2.413   0.009  -0.008  -0.003  -0.013  -3.013   0.009
  0.006   0.009  -2.380  -0.014  -0.005   0.006   0.009  -2.982
  0.012  -0.008  -0.014  -2.425  -0.000   0.012  -0.007  -0.013
  0.007  -0.003  -0.005  -0.000  -2.382   0.006  -0.003  -0.005
 -3.002  -0.013   0.006   0.012   0.006  -3.535  -0.012   0.005
 -0.013  -3.013   0.009  -0.007  -0.003  -0.012  -3.545   0.008
  0.006   0.009  -2.982  -0.013  -0.005   0.005   0.008  -3.515
  0.012  -0.007  -0.013  -3.025  -0.000   0.011  -0.007  -0.013
  0.006  -0.003  -0.005  -0.000  -2.984   0.006  -0.003  -0.005
  0.001  -0.001   0.000   0.003  -0.000   0.001  -0.001   0.000
  0.002  -0.001   0.000   0.006  -0.000   0.002  -0.001   0.000
 -0.005  -0.004   0.002   0.000   0.003  -0.005  -0.004   0.002
  0.000  -0.002  -0.001  -0.005   0.003   0.000  -0.002  -0.001
 -0.002   0.000   0.002   0.002  -0.004  -0.002   0.000   0.002
 -0.006  -0.006   0.002   0.000   0.003  -0.006  -0.005   0.002
  0.000  -0.002  -0.001  -0.007   0.004   0.000  -0.002  -0.001
 -0.003   0.000   0.003   0.002  -0.005  -0.003   0.000   0.003
 pseudopotential strength for first ion, spin component:           2
 -2.168   0.000   0.019   0.025  -0.005  -2.780   0.000   0.018
  0.000  -2.163   0.021  -0.009  -0.042   0.000  -2.775   0.020
  0.019   0.021  -2.157   0.004   0.004   0.018   0.020  -2.769
  0.025  -0.009   0.004  -2.179  -0.002   0.024  -0.009   0.004
 -0.005  -0.042   0.004  -0.002  -2.131  -0.004  -0.040   0.004
 -2.780   0.000   0.018   0.024  -0.004  -3.323   0.000   0.018
  0.000  -2.775   0.020  -0.009  -0.040   0.000  -3.318   0.019
  0.018   0.020  -2.769   0.004   0.004   0.018   0.019  -3.313
  0.024  -0.009   0.004  -2.791  -0.002   0.023  -0.008   0.004
 -0.004  -0.040   0.004  -0.002  -2.744  -0.004  -0.038   0.004
  0.004  -0.009   0.002   0.000   0.002   0.004  -0.009   0.002
  0.006  -0.016   0.004   0.001   0.004   0.006  -0.016   0.004
 -0.000   0.003   0.000   0.000   0.003  -0.000   0.003   0.000
  0.000  -0.004   0.000   0.000  -0.003   0.000  -0.004   0.000
 -0.002   0.000   0.001  -0.002  -0.000  -0.002   0.000   0.001
 -0.000   0.004   0.000   0.000   0.004  -0.000   0.004   0.000
  0.000  -0.005   0.000   0.001  -0.004  -0.000  -0.005   0.000
 -0.002   0.000   0.001  -0.003  -0.000  -0.002  -0.000   0.001
 total augmentation occupancy for first ion, spin component:           1
  2.474  -0.082   0.098  -0.008   0.029  -0.975   0.062  -0.067   0.012  -0.021  -0.018  -0.001  -0.010   0.004   0.015   0.001
 -0.082   2.591   0.121   0.027  -0.131   0.062  -1.061  -0.077  -0.028   0.088   0.034  -0.006   0.008  -0.025   0.001   0.001
  0.098   0.121   3.166  -0.052  -0.089  -0.066  -0.075  -1.337   0.030   0.060  -0.019   0.007  -0.009   0.012   0.001   0.001
 -0.008   0.027  -0.052   2.351   0.076   0.011  -0.028   0.030  -0.913  -0.042   0.009  -0.008   0.006  -0.008   0.014  -0.000
  0.029  -0.131  -0.089   0.076   3.222  -0.021   0.086   0.060  -0.042  -1.378  -0.035  -0.001   0.024   0.004   0.003  -0.001
 -0.975   0.062  -0.066   0.011  -0.021   1.209  -0.053   0.044  -0.014   0.018   0.025  -0.000  -0.003  -0.003  -0.009   0.000
  0.062  -1.061  -0.075  -0.028   0.086  -0.053   1.275   0.044   0.029  -0.053  -0.043   0.005  -0.016   0.013  -0.001   0.000
 -0.067  -0.077  -1.337   0.030   0.060   0.044   0.044   1.308  -0.021  -0.042   0.017  -0.005   0.004  -0.017   0.002  -0.000
  0.012  -0.028   0.030  -0.913  -0.042  -0.014   0.029  -0.021   1.183   0.014  -0.025   0.007  -0.005  -0.003  -0.021   0.000
 -0.021   0.088   0.060  -0.042  -1.378   0.018  -0.053  -0.042   0.014   1.333   0.024  -0.000  -0.015  -0.003  -0.007   0.001
 -0.018   0.034  -0.019   0.009  -0.035   0.025  -0.043   0.017  -0.025   0.024   2.276  -0.295   0.000  -0.025  -0.015  -0.000
 -0.001  -0.006   0.007  -0.008  -0.001  -0.000   0.005  -0.005   0.007  -0.000  -0.295   0.046   0.000   0.001  -0.001  -0.000
 -0.010   0.008  -0.009   0.006   0.024  -0.003  -0.016   0.004  -0.005  -0.015   0.000   0.000   0.308  -0.004   0.004  -0.031
  0.004  -0.025   0.012  -0.008   0.004  -0.003   0.013  -0.017  -0.003  -0.003  -0.025   0.001  -0.004   0.310  -0.001   0.000
  0.015   0.001   0.001   0.014   0.003  -0.009  -0.001   0.002  -0.021  -0.007  -0.015  -0.001   0.004  -0.001   0.311   0.000
  0.001   0.001   0.001  -0.000  -0.001   0.000   0.000  -0.000   0.000   0.001  -0.000  -0.000  -0.031   0.000   0.000   0.004
 -0.000   0.000   0.000   0.003  -0.001   0.000  -0.001   0.001  -0.001   0.001   0.002  -0.000   0.000  -0.031   0.000   0.000
 -0.001  -0.000   0.000  -0.000   0.002   0.001   0.000  -0.001   0.002  -0.000   0.000   0.000   0.000   0.000  -0.031  -0.000
 total augmentation occupancy for first ion, spin component:           2
  0.552   0.034   0.085   0.042  -0.037  -0.345  -0.009  -0.054  -0.015   0.017  -0.004  -0.003   0.025  -0.000   0.011  -0.002
  0.034   0.511   0.107   0.015  -0.248  -0.010  -0.287  -0.073  -0.015   0.157  -0.005   0.004   0.096  -0.025  -0.001  -0.003
  0.085   0.107   0.376   0.098   0.017  -0.055  -0.075  -0.208  -0.061  -0.001   0.021   0.001  -0.025   0.004   0.000   0.001
  0.042   0.015   0.098   0.380   0.036  -0.014  -0.015  -0.059  -0.182  -0.031   0.009   0.003  -0.001   0.044  -0.071  -0.000
 -0.037  -0.248   0.017   0.036   0.395   0.019   0.160  -0.002  -0.031  -0.185   0.009  -0.001  -0.001  -0.089   0.009  -0.001
 -0.345  -0.010  -0.055  -0.014   0.019   0.187  -0.003   0.034  -0.002  -0.007   0.004   0.002  -0.010  -0.000  -0.008   0.002
 -0.009  -0.287  -0.075  -0.015   0.160  -0.003   0.126   0.049   0.014  -0.097  -0.001  -0.004  -0.063   0.015   0.001   0.005
 -0.054  -0.073  -0.208  -0.059  -0.002   0.034   0.049   0.087   0.035  -0.007  -0.012   0.002   0.017  -0.001  -0.004  -0.001
 -0.015  -0.015  -0.061  -0.182  -0.031  -0.002   0.014   0.035   0.046   0.025  -0.007  -0.002   0.000  -0.023   0.048  -0.000
  0.017   0.157  -0.001  -0.031  -0.185  -0.007  -0.097  -0.007   0.025   0.041  -0.004   0.002   0.002   0.057  -0.000   0.001
 -0.004  -0.005   0.021   0.009   0.009   0.004  -0.001  -0.012  -0.007  -0.004  -0.066   0.017  -0.003   0.002   0.016  -0.000
 -0.003   0.004   0.001   0.003  -0.001   0.002  -0.004   0.002  -0.002   0.002   0.017  -0.003  -0.001   0.000   0.003   0.000
  0.025   0.096  -0.025  -0.001  -0.001  -0.010  -0.063   0.017   0.000   0.002  -0.003  -0.001  -0.009  -0.001  -0.000   0.000
 -0.000  -0.025   0.004   0.044  -0.089  -0.000   0.015  -0.001  -0.023   0.057   0.002   0.000  -0.001  -0.011  -0.002  -0.000
  0.011  -0.001   0.000  -0.071   0.009  -0.008   0.001  -0.004   0.048  -0.000   0.016   0.003  -0.000  -0.002  -0.010   0.000
 -0.002  -0.003   0.001  -0.000  -0.001   0.002   0.005  -0.001  -0.000   0.001  -0.000   0.000   0.000  -0.000   0.000  -0.000
  0.000   0.001   0.000  -0.002   0.003  -0.000  -0.002   0.000   0.003  -0.004   0.000  -0.000  -0.000   0.001   0.000   0.000
 -0.000  -0.000   0.000   0.003  -0.000   0.001  -0.000  -0.000  -0.004   0.001   0.001  -0.001   0.000   0.000   0.001  -0.000


------------------------ aborting loop because EDIFF is reached ----------------------------------------


 


 total charge     
 
# of ion       s       p       d       tot
------------------------------------------
    1        0.510   0.516   8.307   9.333
    2        0.506   0.508   8.305   9.319
    3        0.506   0.505   8.315   9.325
    4        0.513   0.524   8.301   9.338
    5        0.480   0.518   6.193   7.191
    6        0.483   0.517   6.200   7.201
    7        0.480   0.514   6.187   7.180
    8        0.483   0.520   6.131   7.135
    9        0.472   0.501   6.263   7.237
   10        0.485   0.520   6.208   7.213
   11        0.491   0.532   6.226   7.249
   12        0.485   0.533   6.273   7.292
   13        0.481   0.519   6.202   7.201
   14        0.488   0.527   6.225   7.239
   15        0.481   0.518   6.191   7.189
   16        0.486   0.536   6.269   7.291
--------------------------------------------------
tot          7.829   8.308 107.797 123.934
 


 magnetization (x)
 
# of ion       s       p       d       tot
------------------------------------------
    1       -0.007  -0.017   0.275   0.251
    2       -0.016  -0.027   0.365   0.321
    3       -0.012  -0.023   0.336   0.301
    4       -0.011  -0.024   0.332   0.297
    5       -0.003  -0.020   2.326   2.303
    6        0.006  -0.006   2.211   2.211
    7        0.008  -0.003   2.270   2.276
    8       -0.035  -0.043  -2.448  -2.527
    9       -0.015  -0.020   0.047   0.012
   10        0.004  -0.007   2.148   2.144
   11       -0.001  -0.017   2.010   1.993
   12       -0.025  -0.048   0.149   0.076
   13       -0.001  -0.020   2.306   2.285
   14        0.000  -0.012   2.006   1.994
   15        0.009  -0.003   2.264   2.270
   16       -0.025  -0.051  -0.077  -0.152
--------------------------------------------------
tot         -0.123  -0.341  16.518  16.055
 
    CHARGE:  cpu time    0.3160: real time    0.3191
    FORLOC:  cpu time    0.0030: real time    0.0031
    FORNL :  cpu time    2.0857: real time    2.1190
    STRESS:  cpu time    6.3380: real time    6.4719
    FORCOR:  cpu time    0.0550: real time    0.0556
    FORHAR:  cpu time    0.0070: real time    0.0065
    MIXING:  cpu time    0.0010: real time    0.0010
    OFIELD:  cpu time    0.0000: real time    0.0001

  FORCE on cell =-STRESS in cart. coord.  units (eV):
  Direction    XX          YY          ZZ          XY          YZ          ZX
  --------------------------------------------------------------------------------------
  Alpha Z   923.24943   923.24943   923.24943
  Ewald   -3596.63625 -3543.07016 -3559.66465     4.51139    12.93225   -18.02892
  Hartree   686.16319   744.47024   724.07818     3.55661    15.28453   -17.53448
  E(xc)    -691.78952  -692.13735  -692.05343     0.05542    -0.11640     0.05505
  Local     669.33310   553.39979   592.01505    -7.93201   -30.82561    36.34502
  n-local  -344.73848  -346.02696  -346.29875     0.37378    -0.49049     0.34312
  augment  1164.81597  1167.60525  1166.52175    -0.42621     2.12863    -0.35028
  Kinetic  1182.21484  1184.37303  1183.83386    -1.17575     0.66402    -0.71839
  Fock        0.00000     0.00000     0.00000     0.00000     0.00000     0.00000
  -------------------------------------------------------------------------------------
  Total      -7.38772    -8.13675    -8.31857    -1.03678    -0.42307     0.11112
  in kB     -64.76389   -71.33016   -72.92413    -9.08881    -3.70877     0.97408
  external pressure =      -69.67 kB  Pullay stress =        0.00 kB


 VOLUME and BASIS-vectors are now :
 -----------------------------------------------------------------------------
  energy-cutoff  :      520.00
  volume of cell :      182.76
      direct lattice vectors                 reciprocal lattice vectors
     1.787500000  1.787500000 -3.575000000     0.069930070  0.069930070 -0.209790210
     0.000000000 -5.362500000 -1.787500000    -0.017482517 -0.157342657 -0.087412587
    -7.150000000  1.787500000 -1.787500000    -0.122377622  0.017482517 -0.052447552

  length of vectors
     4.378462915  5.652571318  7.583720228     0.231931804  0.180840567  0.134285765


 FORCES acting on ions
    electron-ion (+dipol)            ewald-force                    non-local-force                 convergence-correction
 -----------------------------------------------------------------------------------------------
   0.705E+02 -.463E+01 0.434E+02   -.708E+02 0.468E+01 -.436E+02   0.235E+00 -.898E-01 0.197E+00   0.140E+00 0.475E-01 0.454E-01
   0.627E+02 -.259E+02 -.272E+01   -.628E+02 0.259E+02 0.277E+01   0.439E-01 0.120E+00 -.774E-01   0.552E-01 -.723E-01 0.263E-01
   -.516E+02 0.154E+02 -.194E+01   0.518E+02 -.156E+02 0.182E+01   -.287E+00 0.339E+00 0.143E+00   0.500E-01 -.438E-01 -.338E-01
   -.678E+02 0.173E+02 -.368E+02   0.679E+02 -.172E+02 0.368E+02   -.115E+00 -.194E+00 -.449E-01   -.105E-01 0.936E-01 0.857E-01
   -.396E+02 0.188E+02 -.248E+02   0.400E+02 -.191E+02 0.251E+02   -.335E+00 0.260E+00 -.248E+00   -.840E-01 0.730E-01 0.187E-01
   0.709E+02 -.155E+02 0.187E+02   -.716E+02 0.156E+02 -.186E+02   0.632E+00 -.214E+00 -.297E-01   0.357E-01 0.461E-01 0.182E-01
   0.543E+02 -.237E+01 0.371E+02   -.550E+02 0.207E+01 -.373E+02   0.695E+00 0.390E+00 0.219E+00   0.259E-01 -.101E+00 -.536E-01
   0.161E+02 0.154E+02 0.641E+01   -.161E+02 -.152E+02 -.624E+01   -.551E-01 -.258E+00 -.221E+00   0.574E-01 0.376E-01 0.482E-01
   -.599E+01 -.117E+02 0.160E+01   0.601E+01 0.119E+02 -.169E+01   -.607E-01 -.174E+00 0.762E-01   0.340E-01 -.170E-01 0.713E-02
   -.722E+02 0.232E+02 -.127E+02   0.728E+02 -.234E+02 0.129E+02   -.547E+00 0.425E-01 -.195E+00   -.500E-01 0.144E+00 0.257E-01
   -.572E+02 -.336E+01 -.253E+02   0.576E+02 0.341E+01 0.255E+02   -.364E+00 0.226E-01 -.177E+00   -.116E+00 -.692E-01 -.333E-01
   0.225E+02 -.184E+02 0.113E+02   -.226E+02 0.186E+02 -.115E+02   0.190E+00 -.182E+00 0.184E+00   -.454E-01 -.304E-01 -.230E-01
   0.365E+02 -.144E+02 0.239E+02   -.369E+02 0.146E+02 -.243E+02   0.422E+00 -.240E+00 0.288E+00   -.251E-01 0.417E-01 0.407E-01
   0.474E+02 -.616E+00 0.139E+02   -.480E+02 0.777E+00 -.142E+02   0.547E+00 -.956E-01 0.287E+00   0.222E-01 -.750E-01 -.415E-01
   -.574E+02 -.121E+02 -.388E+02   0.579E+02 0.121E+02 0.392E+02   -.575E+00 0.110E+00 -.313E+00   0.567E-02 -.650E-01 -.277E-01
   -.294E+02 0.189E+02 -.131E+02   0.298E+02 -.191E+02 0.134E+02   -.298E+00 0.130E+00 -.188E+00   -.475E-01 -.157E-01 -.820E-01
 -----------------------------------------------------------------------------------------------
   -.176E+00 0.413E-01 0.783E-01   0.426E-12 -.568E-13 -.178E-13   0.129E+00 -.335E-01 -.993E-01   0.476E-01 -.616E-02 0.211E-01
 
 
 POSITION                                       TOTAL-FORCE (eV/Angst)
 -----------------------------------------------------------------------------------
     -5.37181     -1.80057     -3.57778         0.013137      0.007267      0.006313
     -5.35729      0.00589     -1.79344         0.014238     -0.013456     -0.002140
     -3.56832     -3.58268     -3.57307        -0.012365      0.005289     -0.003809
     -3.56891     -1.76402     -1.78217        -0.010160      0.009280     -0.002357
     -1.78385     -3.55774     -1.79562         0.005225      0.010188      0.007317
     -5.36956     -0.02911     -5.35218         0.002054     -0.012531     -0.004820
     -5.35580      1.78408     -3.59842        -0.001882     -0.008444     -0.014738
     -3.57483     -1.76481     -5.32895         0.003185     -0.003227     -0.003478
     -3.55903     -0.01541     -3.59805        -0.004440      0.000917      0.001567
     -1.77587     -1.75390     -3.57595        -0.004064      0.014242      0.007990
     -1.78994     -0.01456     -1.80821         0.006715      0.001438      0.004073
      0.01159     -3.62291     -3.58373        -0.006754     -0.003776     -0.000323
     -0.00892     -1.80159     -1.77383        -0.005392      0.001902     -0.000887
     -0.01666      0.00777     -0.00414         0.001029     -0.009323     -0.008472
     -1.79745      1.76992     -3.55301        -0.004753      0.006158      0.007406
     -0.01335      0.05216     -3.56395         0.004226     -0.005925      0.006358
 -----------------------------------------------------------------------------------
    total drift:                                0.000795      0.001666      0.000046


--------------------------------------------------------------------------------------------------------



  FREE ENERGIE OF THE ION-ELECTRON SYSTEM (eV)
  ---------------------------------------------------
  free  energy   TOTEN  =      -118.53539013 eV

  energy  without entropy=     -118.53909228  energy(sigma->0) =     -118.53662418
 
 d Force = 0.1514733E-03[-0.237E-05, 0.305E-03]  d Energy = 0.1314710E-03 0.200E-04
 d Force = 0.2253644E+00[ 0.218E+00, 0.233E+00]  d Ewald  = 0.2253624E+00 0.199E-05


--------------------------------------------------------------------------------------------------------


    POTLOK:  cpu time    0.0450: real time    0.0461


--------------------------------------------------------------------------------------------------------




--------------------------------------------------------------------------------------------------------


  
 reached required accuracy - stopping structural energy minimisation
     LOOP+:  cpu time   53.0369: real time   53.9469
    4ORBIT:  cpu time    0.0000: real time    0.0000
 


 total charge     
 
# of ion       s       p       d       tot
------------------------------------------
    1        0.510   0.516   8.307   9.333
    2        0.506   0.508   8.305   9.319
    3        0.506   0.505   8.315   9.325
    4        0.513   0.524   8.301   9.338
    5        0.480   0.518   6.193   7.191
    6        0.483   0.517   6.200   7.201
    7        0.480   0.514   6.187   7.180
    8        0.483   0.520   6.131   7.135
    9        0.472   0.501   6.263   7.237
   10        0.485   0.520   6.208   7.213
   11        0.491   0.532   6.226   7.249
   12        0.485   0.533   6.273   7.292
   13        0.481   0.519   6.202   7.201
   14        0.488   0.527   6.225   7.239
   15        0.481   0.518   6.191   7.189
   16        0.486   0.536   6.269   7.291
--------------------------------------------------
tot          7.829   8.308 107.797 123.934
 


 magnetization (x)
 
# of ion       s       p       d       tot
------------------------------------------
    1       -0.007  -0.017   0.275   0.251
    2       -0.016  -0.027   0.365   0.321
    3       -0.012  -0.023   0.336   0.301
    4       -0.011  -0.024   0.332   0.297
    5       -0.003  -0.020   2.326   2.303
    6        0.006  -0.006   2.211   2.211
    7        0.008  -0.003   2.270   2.276
    8       -0.035  -0.043  -2.448  -2.527
    9       -0.015  -0.020   0.047   0.012
   10        0.004  -0.007   2.148   2.144
   11       -0.001  -0.017   2.010   1.993
   12       -0.025  -0.048   0.149   0.076
   13       -0.001  -0.020   2.306   2.285
   14        0.000  -0.012   2.006   1.994
   15        0.009  -0.003   2.264   2.270
   16       -0.025  -0.051  -0.077  -0.152
--------------------------------------------------
tot         -0.123  -0.341  16.518  16.055
 

 total amount of memory used by VASP MPI-rank0    61110. kBytes
=======================================================================

   base      :      30000. kBytes
   nonlr-proj:       4427. kBytes
   fftplans  :       1321. kBytes
   grid      :       3242. kBytes
   one-center:         62. kBytes
   wavefun   :      22058. kBytes
 
  
  
 General timing and accounting informations for this job:
 ========================================================
  
                  Total CPU time used (sec):     1713.987
                            User time (sec):     1700.155
                          System time (sec):       13.833
                         Elapsed time (sec):     1733.587
  
                   Maximum memory used (kb):      112100.
                   Average memory used (kb):           0.
  
                          Minor page faults:        16687
                          Major page faults:            0
                 Voluntary context switches:         2112
