SQS-NiFe                                
           1
     1.787500    1.787500   -3.575000
     0.000000   -5.362500   -1.787500
    -7.150000    1.787500   -1.787500
   Ni   Fe
   4  12
Direct configuration=     1
   0.24784246  0.69183986  0.81619061
   0.00141830  0.24969196  0.75123883
   0.24857203  0.93778406  0.56125300
   0.00212826  0.49566495  0.49630691
   0.99492219  0.74804286  0.23663854
   0.73882269  0.55871200  0.94262936
   0.51203772  0.12908769  0.88023535
   0.73761386  0.80891707  0.69143537
   0.51241458  0.37856364  0.62109083
   0.51114578  0.62879964  0.36986594
   0.25444939  0.18534464  0.30941062
   0.50656219  0.87600830  0.13198011
   0.25505844  0.43946104  0.07588090
   0.99553766  0.00214025  0.00306873
   0.73799933  0.05843130  0.43227475
   0.74347511  0.31151074  0.18050016
Direct configuration=     2
   0.24759511  0.69128769  0.81596330
   0.00372071  0.25015615  0.75080954
   0.24627942  0.93732961  0.56168305
   0.00238554  0.49621830  0.49653638
   0.99982983  0.74791603  0.24291691
   0.74035033  0.56083613  0.93763565
   0.50713920  0.12585278  0.87645834
   0.73935511  0.80693273  0.69069539
   0.51066195  0.38054861  0.62182252
   0.50961090  0.62665797  0.37485573
   0.25282073  0.18742209  0.31236508
   0.50204094  0.87694131  0.12787662
   0.25015711  0.43957981  0.06960511
   0.99718363  0.00007844  0.00011770
   0.74288082  0.06166158  0.43605639
   0.74798867  0.31058076  0.18460230
Direct configuration=     3
   0.24758455  0.69126412  0.81595360
   0.00381896  0.25017596  0.75079122
   0.24618158  0.93731022  0.56170140
   0.00239651  0.49624191  0.49654617
   0.00003926  0.74791062  0.24318484
   0.74041552  0.56092678  0.93742254
   0.50693016  0.12571473  0.87629716
   0.73942941  0.80684805  0.69066382
   0.51058716  0.38063332  0.62185374
   0.50954540  0.62656658  0.37506866
   0.25275123  0.18751075  0.31249116
   0.50184800  0.87698113  0.12770151
   0.24994795  0.43958488  0.06933729
   0.99725387 -0.00000954 -0.00000824
   0.74308914  0.06179943  0.43621777
   0.74818129  0.31054107  0.18477736
Direct configuration=     4
   0.24756344  0.69121700  0.81593420
   0.00401547  0.25021557  0.75075458
   0.24598591  0.93727143  0.56173811
   0.00241847  0.49628914  0.49656575
   0.00045812  0.74789979  0.24372069
   0.74054591  0.56110807  0.93699634
   0.50651208  0.12543864  0.87597479
   0.73957803  0.80667869  0.69060066
   0.51043757  0.38080273  0.62191619
   0.50941440  0.62638379  0.37549454
   0.25261222  0.18768806  0.31274332
   0.50146211  0.87706076  0.12735128
   0.24952962  0.43959502  0.06880165
   0.99739435 -0.00018552 -0.00026010
   0.74350577  0.06207514  0.43654053
   0.74856652  0.31046170  0.18512748
Direct configuration=     5
   0.24752122  0.69112274  0.81589540
   0.00440849  0.25029481  0.75068130
   0.24559456  0.93719386  0.56181151
   0.00246239  0.49638360  0.49660492
   0.00129585  0.74787814  0.24479240
   0.74080667  0.56147066  0.93614392
   0.50567591  0.12488644  0.87533007
   0.73987525  0.80633997  0.69047435
   0.51013840  0.38114156  0.62204109
   0.50915240  0.62601821  0.37634629
   0.25233421  0.18804267  0.31324764
   0.50069034  0.87722002  0.12665082
   0.24869297  0.43961529  0.06773039
   0.99767532 -0.00053746 -0.00076384
   0.74433903  0.06262654  0.43718605
   0.74933697  0.31030295  0.18582770
Direct configuration=     6
   0.24743678  0.69093423  0.81581780
   0.00519452  0.25045328  0.75053474
   0.24481187  0.93703871  0.56195833
   0.00255022  0.49657251  0.49668326
   0.00297130  0.74783484  0.24693581
   0.74132820  0.56219583  0.93443908
   0.50400358  0.12378206  0.87404061
   0.74046971  0.80566252  0.69022172
   0.50954006  0.38181923  0.62229088
   0.50862840  0.62528705  0.37804978
   0.25177819  0.18875191  0.31425628
   0.49914681  0.87753855  0.12524990
   0.24701968  0.43965584  0.06558785
   0.99823725 -0.00124135 -0.00177131
   0.74600555  0.06372935  0.43847708
   0.75087789  0.30998546  0.18722816
Direct configuration=     7
   0.24725165  0.68940049  0.81491788
   0.00499781  0.25090784  0.75004962
   0.24605959  0.93761781  0.56198837
   0.00255729  0.49655378  0.49770239
   0.00331182  0.74774757  0.24848302
   0.74246265  0.56273339  0.93479149
   0.50403724  0.12506026  0.87412461
   0.74179665  0.80549006  0.68843084
   0.50742353  0.38056522  0.62281165
   0.50685567  0.62333281  0.37724621
   0.25313927  0.19025580  0.31398090
   0.49951317  0.87979324  0.12431295
   0.24624134  0.43887074  0.06403868
   0.99845461 -0.00068693  0.00006650
   0.74552794  0.06462640  0.43893092
   0.75036977  0.30773154  0.18812397
Direct configuration=     8
   0.24705533  0.68777391  0.81396349
   0.00478920  0.25138990  0.74953513
   0.24738283  0.93823196  0.56202023
   0.00256479  0.49653392  0.49878320
   0.00367296  0.74765502  0.25012389
   0.74366576  0.56330348  0.93516523
   0.50407295  0.12641583  0.87421369
   0.74320391  0.80530716  0.68653157
   0.50517889  0.37923532  0.62336393
   0.50497563  0.62126027  0.37639400
   0.25458274  0.19185071  0.31368885
   0.49990170  0.88218441  0.12331929
   0.24541589  0.43803812  0.06239573
   0.99868512 -0.00009895  0.00201555
   0.74502141  0.06557774  0.43941222
   0.74983090  0.30534119  0.18907401
Direct configuration=     9
   0.24703785  0.68762914  0.81387855
   0.00477063  0.25143281  0.74948934
   0.24750060  0.93828662  0.56202306
   0.00256546  0.49653215  0.49887939
   0.00370510  0.74764678  0.25026993
   0.74377284  0.56335422  0.93519850
   0.50407613  0.12653648  0.87422162
   0.74332916  0.80529088  0.68636253
   0.50497911  0.37911696  0.62341309
   0.50480831  0.62107581  0.37631815
   0.25471121  0.19199266  0.31366286
   0.49993628  0.88239723  0.12323085
   0.24534242  0.43796401  0.06224950
   0.99870564 -0.00004662  0.00218902
   0.74497633  0.06566241  0.43945506
   0.74978293  0.30512844  0.18915857
Direct configuration=    10
   0.24788120  0.68869676  0.81367819
   0.00343416  0.25044663  0.74942210
   0.24860243  0.93846163  0.56192236
   0.00195069  0.49632954  0.49922738
   0.00341966  0.74778041  0.25012594
   0.74435552  0.56457878  0.93627697
   0.50459909  0.12682741  0.87462810
   0.74393024  0.80571155  0.68622999
   0.50480825  0.37885434  0.62369057
   0.50393554  0.62043157  0.37505689
   0.25455705  0.19202176  0.31335313
   0.50000411  0.88294797  0.12320454
   0.24582864  0.43832705  0.06270760
   0.99913070 -0.00043676  0.00259216
   0.74404411  0.06492593  0.43861200
   0.74951862  0.30409544  0.18927210
Direct configuration=    11
   0.24845053  0.68941749  0.81354293
   0.00253192  0.24978087  0.74937670
   0.24934627  0.93857977  0.56185439
   0.00153567  0.49619277  0.49946230
   0.00322697  0.74787062  0.25002873
   0.74474888  0.56540546  0.93700503
   0.50495214  0.12702381  0.87490250
   0.74433602  0.80599554  0.68614051
   0.50469291  0.37867704  0.62387790
   0.50334634  0.61999665  0.37420544
   0.25445298  0.19204140  0.31314403
   0.50004990  0.88331977  0.12318678
   0.24615688  0.43857214  0.06301685
   0.99941765 -0.00070014  0.00286432
   0.74341478  0.06442874  0.43804286
   0.74934018  0.30339807  0.18934874
Direct configuration=    12
   0.24880750  0.68975974  0.81355131
   0.00221087  0.24960515  0.74962872
   0.24945920  0.93848155  0.56159826
   0.00116583  0.49590368  0.49941421
   0.00318779  0.74790815  0.25018709
   0.74509913  0.56596995  0.93719951
   0.50507252  0.12730366  0.87518335
   0.74447611  0.80599493  0.68612538
   0.50480702  0.37898159  0.62394565
   0.50335696  0.61974276  0.37421064
   0.25363700  0.19179121  0.31345000
   0.49957298  0.88318039  0.12319614
   0.24575830  0.43863905  0.06277203
   0.99993970 -0.00061822  0.00256664
   0.74344433  0.06385563  0.43754813
   0.75000477  0.30350078  0.18942293
Direct configuration=    13
   0.24901764  0.68996121  0.81355624
   0.00202188  0.24950171  0.74977708
   0.24952567  0.93842373  0.56144748
   0.00094813  0.49573351  0.49938590
   0.00316473  0.74793025  0.25028031
   0.74530531  0.56630224  0.93731399
   0.50514339  0.12746839  0.87534868
   0.74455857  0.80599457  0.68611648
   0.50487419  0.37916087  0.62398554
   0.50336321  0.61959330  0.37421370
   0.25315666  0.19164394  0.31363011
   0.49929223  0.88309835  0.12320165
   0.24552367  0.43867844  0.06262792
   0.00024700 -0.00057000  0.00239141
   0.74346172  0.06351826  0.43725691
   0.75039599  0.30356124  0.18946660
