 vasp.5.4.4.18Apr17-6-g9f103f2a35 (build Dec 15 2018 21:27:11) complex          
  
 executed on             LinuxIFC date 2022.03.12  19:10:46
 running on   72 total cores
 distrk:  each k-point on   72 cores,    1 groups
 distr:  one band on NCORES_PER_BAND=  24 cores,    3 groups


--------------------------------------------------------------------------------------------------------


 INCAR:
 POTCAR:    PAW_PBE Ni 02Aug2007                  
 POTCAR:    PAW_PBE Fe 06Sep2000                  
 POTCAR:    PAW_PBE O 08Apr2002                   
 POTCAR:    PAW_PBE H 15Jun2001                   

 ----------------------------------------------------------------------------- 
|                                                                             |
|           W    W    AA    RRRRR   N    N  II  N    N   GGGG   !!!           |
|           W    W   A  A   R    R  NN   N  II  NN   N  G    G  !!!           |
|           W    W  A    A  R    R  N N  N  II  N N  N  G       !!!           |
|           W WW W  AAAAAA  RRRRR   N  N N  II  N  N N  G  GGG   !            |
|           WW  WW  A    A  R   R   N   NN  II  N   NN  G    G                |
|           W    W  A    A  R    R  N    N  II  N    N   GGGG   !!!           |
|                                                                             |
|      For optimal performance we recommend to set                            |
|        NCORE= 4 - approx SQRT( number of cores)                             |
|      NCORE specifies how many cores store one orbital (NPAR=cpu/NCORE).     |
|      This setting can  greatly improve the performance of VASP for DFT.     |
|      The default,   NCORE=1            might be grossly inefficient         |
|      on modern multi-core architectures or massively parallel machines.     |
|      Do your own testing !!!!                                               |
|      Unfortunately you need to use the default for GW and RPA calculations. |
|      (for HF NCORE is supported but not extensively tested yet)             |
|                                                                             |
 ----------------------------------------------------------------------------- 

 POTCAR:    PAW_PBE Ni 02Aug2007                  
   VRHFIN =Ni:                                                                  
   LEXCH  = PE                                                                  
   EATOM  =  1077.6739 eV,   79.2068 Ry                                         
                                                                                
   TITEL  = PAW_PBE Ni 02Aug2007                                                
   LULTRA =        F    use ultrasoft PP ?                                      
   IUNSCR =        1    unscreen: 0-lin 1-nonlin 2-no                           
   RPACOR =    2.000    partial core radius                                     
   POMASS =   58.690; ZVAL   =   10.000    mass and valenz                      
   RCORE  =    2.300    outmost cutoff radius                                   
   RWIGS  =    2.430; RWIGS  =    1.286    wigner-seitz radius (au A)           
   ENMAX  =  269.532; ENMIN  =  202.149 eV                                      
   RCLOC  =    1.201    cutoff for local pot                                    
   LCOR   =        T    correct aug charges                                     
   LPAW   =        T    paw PP                                                  
   EAUG   =  544.565                                                            
   DEXC   =    0.000                                                            
   RMAX   =    2.357    core radius for proj-oper                               
   RAUG   =    1.300    factor for augmentation sphere                          
   RDEP   =    2.390    radius for radial grids                                 
   RDEPT  =    1.838    core radius for aug-charge                              
                                                                                
   Atomic configuration                                                         
    9 entries                                                                   
     n  l   j            E        occ.                                          
     1  0  0.50     -8206.4253   2.0000                                         
     2  0  0.50      -976.1748   2.0000                                         
     2  1  1.50      -839.0571   6.0000                                         
     3  0  0.50      -105.9991   2.0000                                         
     3  1  1.50       -66.4603   6.0000                                         
     3  2  2.50        -4.6458   9.0000                                         
     4  0  0.50        -4.4926   1.0000                                         
     4  1  1.50        -4.0817   0.0000                                         
     4  3  2.50        -1.3606   0.0000                                         
   Description                                                                  
     l       E           TYP  RCUT    TYP  RCUT                                 
     2     -4.6457903     23  2.300                                             
     2     -6.0063729     23  2.300                                             
     0     -4.4925590     23  2.300                                             
     0      5.0102601     23  2.300                                             
     1     -2.7211652     23  2.300                                             
     1     16.5183231     23  2.300                                             
  local pseudopotential read in
  partial core-charges read in
  partial kinetic energy density read in
  atomic valenz-charges read in
  non local Contribution for L=           2  read in
    real space projection operators read in
  non local Contribution for L=           2  read in
    real space projection operators read in
  non local Contribution for L=           0  read in
    real space projection operators read in
  non local Contribution for L=           0  read in
    real space projection operators read in
  non local Contribution for L=           1  read in
    real space projection operators read in
  non local Contribution for L=           1  read in
    real space projection operators read in
    PAW grid and wavefunctions read in
 
   number of l-projection  operators is LMAX  =           6
   number of lm-projection operators is LMMAX =          18
 
 POTCAR:    PAW_PBE Fe 06Sep2000                  
   VRHFIN =Fe:  d7 s1                                                           
   LEXCH  = PE                                                                  
   EATOM  =   594.3153 eV,   43.6809 Ry                                         
                                                                                
   TITEL  = PAW_PBE Fe 06Sep2000                                                
   LULTRA =        F    use ultrasoft PP ?                                      
   IUNSCR =        1    unscreen: 0-lin 1-nonlin 2-no                           
   RPACOR =    2.000    partial core radius                                     
   POMASS =   55.847; ZVAL   =    8.000    mass and valenz                      
   RCORE  =    2.300    outmost cutoff radius                                   
   RWIGS  =    2.460; RWIGS  =    1.302    wigner-seitz radius (au A)           
   ENMAX  =  267.882; ENMIN  =  200.911 eV                                      
   RCLOC  =    1.701    cutoff for local pot                                    
   LCOR   =        T    correct aug charges                                     
   LPAW   =        T    paw PP                                                  
   EAUG   =  511.368                                                            
   DEXC   =    0.000                                                            
   RMAX   =    2.356    core radius for proj-oper                               
   RAUG   =    1.300    factor for augmentation sphere                          
   RDEP   =    2.442    radius for radial grids                                 
   RDEPT  =    1.890    core radius for aug-charge                              
                                                                                
   Atomic configuration                                                         
    9 entries                                                                   
     n  l   j            E        occ.                                          
     1  0  0.50     -6993.8440   2.0000                                         
     2  0  0.50      -814.6047   2.0000                                         
     2  1  1.50      -693.3689   6.0000                                         
     3  0  0.50       -89.4732   2.0000                                         
     3  1  1.50       -55.6373   6.0000                                         
     3  2  2.50        -3.8151   7.0000                                         
     4  0  0.50        -4.2551   1.0000                                         
     4  1  1.50        -3.4015   0.0000                                         
     4  3  2.50        -1.3606   0.0000                                         
   Description                                                                  
     l       E           TYP  RCUT    TYP  RCUT                                 
     2     -3.8151135     23  2.300                                             
     2     -5.1756961     23  2.300                                             
     0     -4.2550963     23  2.300                                             
     0      7.2035603     23  2.300                                             
     1     -2.7211652     23  2.300                                             
     1     18.4316424     23  2.300                                             
  local pseudopotential read in
  partial core-charges read in
  partial kinetic energy density read in
  atomic valenz-charges read in
  non local Contribution for L=           2  read in
    real space projection operators read in
  non local Contribution for L=           2  read in
    real space projection operators read in
  non local Contribution for L=           0  read in
    real space projection operators read in
  non local Contribution for L=           0  read in
    real space projection operators read in
  non local Contribution for L=           1  read in
    real space projection operators read in
  non local Contribution for L=           1  read in
    real space projection operators read in
    PAW grid and wavefunctions read in
 
   number of l-projection  operators is LMAX  =           6
   number of lm-projection operators is LMMAX =          18
 
 POTCAR:    PAW_PBE O 08Apr2002                   
   VRHFIN =O: s2p4                                                              
   LEXCH  = PE                                                                  
   EATOM  =   432.3788 eV,   31.7789 Ry                                         
                                                                                
   TITEL  = PAW_PBE O 08Apr2002                                                 
   LULTRA =        F    use ultrasoft PP ?                                      
   IUNSCR =        1    unscreen: 0-lin 1-nonlin 2-no                           
   RPACOR =    1.200    partial core radius                                     
   POMASS =   16.000; ZVAL   =    6.000    mass and valenz                      
   RCORE  =    1.520    outmost cutoff radius                                   
   RWIGS  =    1.550; RWIGS  =    0.820    wigner-seitz radius (au A)           
   ENMAX  =  400.000; ENMIN  =  300.000 eV                                      
   ICORE  =        2    local potential                                         
   LCOR   =        T    correct aug charges                                     
   LPAW   =        T    paw PP                                                  
   EAUG   =  605.392                                                            
   DEXC   =    0.000                                                            
   RMAX   =    1.553    core radius for proj-oper                               
   RAUG   =    1.300    factor for augmentation sphere                          
   RDEP   =    1.550    radius for radial grids                                 
   RDEPT  =    1.329    core radius for aug-charge                              
                                                                                
   Atomic configuration                                                         
    4 entries                                                                   
     n  l   j            E        occ.                                          
     1  0  0.50      -514.6923   2.0000                                         
     2  0  0.50       -23.9615   2.0000                                         
     2  1  0.50        -9.0305   4.0000                                         
     3  2  1.50        -9.5241   0.0000                                         
   Description                                                                  
     l       E           TYP  RCUT    TYP  RCUT                                 
     0    -23.9615318     23  1.200                                             
     0     -9.5240782     23  1.200                                             
     1     -9.0304911     23  1.520                                             
     1      8.1634956     23  1.520                                             
     2     -9.5240782      7  1.500                                             
  local pseudopotential read in
  partial core-charges read in
  partial kinetic energy density read in
  kinetic energy density of atom read in
  atomic valenz-charges read in
  non local Contribution for L=           0  read in
    real space projection operators read in
  non local Contribution for L=           0  read in
    real space projection operators read in
  non local Contribution for L=           1  read in
    real space projection operators read in
  non local Contribution for L=           1  read in
    real space projection operators read in
    PAW grid and wavefunctions read in
 
   number of l-projection  operators is LMAX  =           4
   number of lm-projection operators is LMMAX =           8
 
 POTCAR:    PAW_PBE H 15Jun2001                   
   VRHFIN =H: ultrasoft test                                                    
   LEXCH  = PE                                                                  
   EATOM  =    12.4884 eV,    0.9179 Ry                                         
                                                                                
   TITEL  = PAW_PBE H 15Jun2001                                                 
   LULTRA =        F    use ultrasoft PP ?                                      
   IUNSCR =        0    unscreen: 0-lin 1-nonlin 2-no                           
   RPACOR =    0.000    partial core radius                                     
   POMASS =    1.000; ZVAL   =    1.000    mass and valenz                      
   RCORE  =    1.100    outmost cutoff radius                                   
   RWIGS  =    0.700; RWIGS  =    0.370    wigner-seitz radius (au A)           
   ENMAX  =  250.000; ENMIN  =  200.000 eV                                      
   RCLOC  =    0.701    cutoff for local pot                                    
   LCOR   =        T    correct aug charges                                     
   LPAW   =        T    paw PP                                                  
   EAUG   =  400.000                                                            
   RMAX   =    1.123    core radius for proj-oper                               
   RAUG   =    1.200    factor for augmentation sphere                          
   RDEP   =    1.112    radius for radial grids                                 
   RDEPT  =    0.926    core radius for aug-charge                              
                                                                                
   Atomic configuration                                                         
    2 entries                                                                   
     n  l   j            E        occ.                                          
     1  0  0.50        -6.4927   1.0000                                         
     2  1  0.50        -3.4015   0.0000                                         
   Description                                                                  
     l       E           TYP  RCUT    TYP  RCUT                                 
     0     -6.4927494     23  1.100                                             
     0      6.8029130     23  1.100                                             
     1     -4.0817478     23  1.100                                             
  local pseudopotential read in
  atomic valenz-charges read in
  non local Contribution for L=           0  read in
    real space projection operators read in
  non local Contribution for L=           0  read in
    real space projection operators read in
  non local Contribution for L=           1  read in
    real space projection operators read in
    PAW grid and wavefunctions read in
 
   number of l-projection  operators is LMAX  =           3
   number of lm-projection operators is LMMAX =           5
 
 Optimization of the real space projectors (new method)

 maximal supplied QI-value         = 16.25
 optimisation between [QCUT,QGAM] = [ 11.54, 23.24] = [ 37.28,151.24] Ry 
 Optimized for a Real-space Cutoff    1.45 Angstroem

   l    n(q)    QCUT    max X(q) W(low)/X(q) W(high)/X(q)  e(spline) 
   2      9    11.539    60.317    0.19E-03    0.47E-04    0.16E-06
   2      9    11.539    55.921    0.19E-03    0.48E-04    0.16E-06
   0     10    11.539    51.690    0.80E-04    0.50E-04    0.24E-06
   0     10    11.539    30.015    0.73E-04    0.45E-04    0.22E-06
   1     10    11.539    18.849    0.87E-04    0.16E-03    0.71E-07
   1     10    11.539    14.624    0.73E-04    0.13E-03    0.64E-07
 Optimization of the real space projectors (new method)

 maximal supplied QI-value         = 16.25
 optimisation between [QCUT,QGAM] = [ 11.54, 23.24] = [ 37.28,151.24] Ry 
 Optimized for a Real-space Cutoff    1.53 Angstroem

   l    n(q)    QCUT    max X(q) W(low)/X(q) W(high)/X(q)  e(spline) 
   2     10    11.539    80.901    0.11E-03    0.14E-03    0.21E-06
   2     10    11.539    75.754    0.11E-03    0.14E-03    0.22E-06
   0     11    11.539    58.752    0.52E-04    0.18E-04    0.33E-06
   0     11    11.539    30.679    0.44E-04    0.16E-04    0.30E-06
   1     10    11.539    17.977    0.53E-04    0.29E-04    0.13E-06
   1     10    11.539    13.559    0.44E-04    0.25E-04    0.11E-06
 Optimization of the real space projectors (new method)

 maximal supplied QI-value         = 24.76
 optimisation between [QCUT,QGAM] = [ 11.64, 23.27] = [ 37.91,151.63] Ry 
 Optimized for a Real-space Cutoff    1.14 Angstroem

   l    n(q)    QCUT    max X(q) W(low)/X(q) W(high)/X(q)  e(spline) 
   0      8    11.635    20.381    0.10E-03    0.33E-03    0.24E-06
   0      8    11.635    15.268    0.11E-03    0.35E-03    0.26E-06
   1      7    11.635     5.964    0.24E-03    0.31E-03    0.30E-06
   1      7    11.635     5.382    0.22E-03    0.25E-03    0.26E-06
 Optimization of the real space projectors (new method)

 maximal supplied QI-value         = 34.20
 optimisation between [QCUT,QGAM] = [ 11.63, 23.26] = [ 37.87,151.49] Ry 
 Optimized for a Real-space Cutoff    1.21 Angstroem

   l    n(q)    QCUT    max X(q) W(low)/X(q) W(high)/X(q)  e(spline) 
   0      8    11.629    19.460    0.17E-03    0.34E-03    0.21E-06
   0      8    11.629    12.209    0.16E-03    0.33E-03    0.21E-06
   1      8    11.629     4.655    0.18E-03    0.16E-03    0.26E-06
  PAW_PBE Ni 02Aug2007                  :
 energy of atom  1       EATOM=-1077.6739
 kinetic energy error for atom=    0.0030 (will be added to EATOM!!)
  PAW_PBE Fe 06Sep2000                  :
 energy of atom  2       EATOM= -594.3153
 kinetic energy error for atom=    0.0026 (will be added to EATOM!!)
  PAW_PBE O 08Apr2002                   :
 energy of atom  3       EATOM= -432.3788
 kinetic energy error for atom=    0.0208 (will be added to EATOM!!)
  PAW_PBE H 15Jun2001                   :
 energy of atom  4       EATOM=  -12.4884
 kinetic energy error for atom=    0.0014 (will be added to EATOM!!)
 
 
 POSCAR: POSCAR                                  
  positions in direct lattice
  velocities in cartesian coordinates
 exchange correlation table for  LEXCH =        8
   RHO(1)=    0.500       N(1)  =     2000
   RHO(2)=  100.500       N(2)  =     4000

 VTST: version 3.2, (02/03/18)

 CHAIN: initializing optimizer
 
 OPT: Using VASP Dynamics algorithm
 CHAIN: Read ICHAIN            0
 
 POSCAR: POSCAR                                  
  positions in direct lattice
  velocities in cartesian coordinates
 


--------------------------------------------------------------------------------------------------------


 ion  position               nearest neighbor table
   1  0.999  0.001  0.191-  35 2.44  59 2.48  23 2.50  32 2.50   5 2.52  40 2.52  37 2.52   2 2.53
                             4 2.53  21 2.54  34 2.54  62 2.59
   2  0.248  0.999  0.192-  59 2.45  50 2.47  36 2.48   6 2.49  37 2.50   3 2.51  28 2.52  60 2.52
                             5 2.52  21 2.53   1 2.53   8 2.56
   3  0.499  0.002  0.192-  39 2.46  36 2.49  30 2.50  60 2.50  34 2.51   2 2.51   8 2.52  11 2.52
                             7 2.53  50 2.54  51 2.54  61 2.57
   4  0.998  0.251  0.192-  35 2.46  42 2.49  19 2.50  43 2.50  34 2.50  13 2.50   7 2.53   1 2.53
                            40 2.53  10 2.54   5 2.55  46 2.55
   5  0.249  0.249  0.191-  36 2.48  45 2.48  35 2.49  37 2.50  46 2.50   6 2.51   1 2.52  42 2.52
                             2 2.52  16 2.54   4 2.55  44 2.55
   6  0.332  0.165  0.287-  17 2.46  38 2.47   9 2.47  36 2.47   2 2.49   5 2.51  59 2.52  45 2.53
                            60 2.54  15 2.55  39 2.56  35 2.56
   7  0.749  0.253  0.193-  39 2.42  18 2.46  14 2.49  48 2.49  13 2.51  34 2.51  10 2.52   4 2.53
                             3 2.53  11 2.54  36 2.55  19 2.55
   8  0.418  0.084  0.094-  37 2.49  36 2.51  16 2.51   3 2.52  11 2.52  30 2.53  28 2.53  48 2.56
                             2 2.56
   9  0.416  0.086  0.382-  68 1.84  38 2.43   6 2.47  17 2.48  60 2.50  49 2.53  12 2.53  29 2.53
                            39 2.54  31 2.55
  10  0.831  0.166  0.290-  41 2.44  12 2.46  39 2.48  20 2.49  34 2.49  35 2.51  43 2.51   7 2.52
                            62 2.53  18 2.53   4 2.54  61 2.55
  11  0.668  0.085  0.096-  34 2.51  40 2.51  48 2.51   8 2.52   3 2.52  19 2.53  30 2.54  63 2.54
                             7 2.54
  12  0.667  0.087  0.384-  68 1.85  10 2.46  20 2.48  41 2.49  39 2.51  49 2.52   9 2.53  61 2.54
                            64 2.56  31 2.57
  13  0.999  0.499  0.193-  43 2.44  22 2.47  18 2.49  53 2.50   4 2.50  42 2.51   7 2.51  19 2.52
                            50 2.52  21 2.53  14 2.53  26 2.55
  14  0.748  0.499  0.192-  15 2.47  44 2.48  18 2.49   7 2.49  48 2.49  56 2.49  57 2.52  26 2.52
                            21 2.52  23 2.53  13 2.53  36 2.57
  15  0.584  0.419  0.286-  49 2.44  56 2.46  14 2.47  44 2.47  45 2.49  17 2.50  18 2.50  36 2.52
                             6 2.55  55 2.56  39 2.56  58 2.63
  16  0.420  0.333  0.094-  36 2.51   8 2.51  37 2.52  57 2.52  44 2.52  46 2.53  24 2.54  48 2.54
                             5 2.54
  17  0.414  0.330  0.381-  66 1.85  38 2.44   6 2.46   9 2.48  45 2.50  15 2.50  49 2.51  47 2.54
                            25 2.55  58 2.58
  18  0.830  0.416  0.287-  49 2.42   7 2.46  56 2.48  43 2.48  14 2.49  13 2.49  39 2.49  15 2.50
                            10 2.53  20 2.53  27 2.54  22 2.54
  19  0.919  0.335  0.096-  48 2.49   4 2.50  40 2.51  53 2.51  13 2.52  11 2.53  26 2.54  46 2.54
                             7 2.55
  20  0.914  0.332  0.385-  67 1.86  41 2.47  12 2.48  10 2.49  43 2.51  49 2.52  18 2.53  47 2.54
                            27 2.59  54 2.60
  21  0.998  0.749  0.193-  59 2.45  50 2.48  23 2.48  22 2.49  32 2.50  56 2.51  26 2.52  14 2.52
                             2 2.53  13 2.53   1 2.54  28 2.55
  22  0.083  0.666  0.287-  29 2.43  50 2.44  13 2.47  43 2.47  21 2.49  54 2.52  60 2.52  18 2.54
                            59 2.54  56 2.54  27 2.56  52 2.65
  23  0.753  0.752  0.192-  62 2.47  21 2.48  63 2.49   1 2.50  32 2.51  56 2.51  57 2.52  55 2.53
                            14 2.53  44 2.54  51 2.57  34 2.58
  24  0.417  0.584  0.096-  46 2.49  44 2.50  51 2.51  57 2.52  30 2.52  63 2.53  16 2.54  42 2.56
                            53 2.57
  25  0.412  0.581  0.383-  66 1.89  52 2.42  54 2.48  47 2.51  55 2.52  45 2.52  31 2.53  17 2.55
                            58 2.56  64 2.56
  26  0.916  0.585  0.095-  48 2.48  32 2.48  57 2.50  53 2.51  21 2.52  14 2.52  28 2.53  19 2.54
                            13 2.55
  27  0.910  0.586  0.384-  67 1.89  56 2.45  58 2.45  33 2.48  49 2.50  18 2.54  29 2.56  22 2.56
                            20 2.59  54 2.61
  28  0.167  0.835  0.095-  32 2.48  37 2.49  53 2.50   2 2.52  50 2.53   8 2.53  26 2.53  30 2.54
                            21 2.55
  29  0.165  0.836  0.377-  60 2.41  59 2.43  22 2.43  38 2.47  33 2.50  54 2.52   9 2.53  31 2.54
                            27 2.56
  30  0.417  0.833  0.097-  51 2.49   3 2.50  53 2.52  24 2.52   8 2.53  11 2.54  28 2.54  63 2.54
                            50 2.55
  31  0.413  0.832  0.385-  68 1.86  54 2.45  52 2.48  60 2.50  25 2.53  61 2.53  29 2.54  64 2.54
                             9 2.55  12 2.57
  32  0.920  0.833  0.095-  28 2.48  26 2.48   1 2.50  21 2.50  23 2.51  57 2.53  37 2.54  63 2.54
                            40 2.57
  33  0.916  0.834  0.381-  65 1.95  27 2.48  56 2.48  62 2.49  59 2.50  29 2.50  58 2.51  64 2.53
                            41 2.57  38 2.58
  34  0.749  0.005  0.193-  62 2.47  10 2.49  61 2.50   4 2.50  11 2.51   7 2.51   3 2.51  63 2.54
                             1 2.54  51 2.55  40 2.57  23 2.58
  35  0.077  0.161  0.284-   1 2.44   4 2.46  47 2.47   5 2.49  59 2.49  10 2.51  41 2.54  62 2.56
                             6 2.56  43 2.60  45 2.60  38 2.61
  36  0.493  0.245  0.192-   6 2.47   5 2.48   2 2.48   3 2.49  39 2.50  16 2.51   8 2.51  44 2.52
                            15 2.52   7 2.55  14 2.57  48 2.57
  37  0.171  0.083  0.095-  28 2.49   8 2.49   2 2.50   5 2.50  16 2.52   1 2.52  32 2.54  46 2.57
                            40 2.58
  38  0.175  0.086  0.384-  65 1.85   9 2.43  17 2.44   6 2.47  29 2.47  47 2.55  59 2.58  33 2.58
                            35 2.61  41 2.65
  39  0.586  0.167  0.286-   7 2.42   3 2.46  49 2.48  10 2.48  18 2.49  36 2.50  12 2.51   9 2.54
                            60 2.55   6 2.56  15 2.56  61 2.58
  40  0.917  0.086  0.094-  19 2.51  11 2.51   1 2.52  63 2.53   4 2.53  46 2.55  34 2.57  32 2.57
                            37 2.58
  41  0.914  0.088  0.383-  65 1.85  10 2.44  20 2.47  12 2.49  47 2.50  35 2.54  64 2.54  62 2.56
                            33 2.57  38 2.65
  42  0.246  0.497  0.194-  45 2.45  43 2.48   4 2.49  13 2.51  46 2.51   5 2.52  53 2.54  52 2.54
                            51 2.55  24 2.56  44 2.58  50 2.59
  43  0.077  0.418  0.287-  47 2.43  13 2.44  22 2.47  42 2.48  18 2.48   4 2.50  10 2.51  20 2.51
                            54 2.56  35 2.60  45 2.63  52 2.66
  44  0.503  0.500  0.191-  15 2.47  14 2.48  45 2.48  57 2.49  24 2.50  36 2.52  16 2.52  23 2.54
                             5 2.55  51 2.55  55 2.55  42 2.58
  45  0.336  0.417  0.285-  42 2.45  47 2.45  44 2.48   5 2.48  15 2.49  17 2.50  25 2.52   6 2.53
                            52 2.53  55 2.54  35 2.60  43 2.63
  46  0.171  0.337  0.096-  24 2.49   5 2.50  42 2.51  16 2.53  19 2.54   4 2.55  53 2.55  40 2.55
                            37 2.57
  47  0.164  0.331  0.377-  43 2.43  45 2.45  35 2.47  41 2.50  25 2.51  17 2.54  20 2.54  38 2.55
                            54 2.59
  48  0.673  0.336  0.096-  26 2.48  19 2.49  14 2.49   7 2.49  11 2.51  57 2.53  16 2.54   8 2.56
                            36 2.57
  49  0.666  0.336  0.379-  18 2.42  15 2.44  39 2.48  27 2.50  17 2.51  12 2.52  20 2.52   9 2.53
                            58 2.54
  50  0.245  0.753  0.193-  22 2.44  60 2.45   2 2.47  21 2.48  53 2.51  13 2.52  28 2.53   3 2.54
                            30 2.55  51 2.57  52 2.58  42 2.59
  51  0.498  0.750  0.193-  52 2.43  61 2.48  55 2.48  30 2.49  24 2.51  63 2.52   3 2.54  44 2.55
                            34 2.55  42 2.55  23 2.57  50 2.57
  52  0.348  0.673  0.289-  55 2.39  61 2.39  25 2.42  51 2.43  31 2.48  60 2.51  45 2.53  42 2.54
                            54 2.57  50 2.58  22 2.65  43 2.66
  53  0.165  0.586  0.097-  13 2.50  28 2.50  50 2.51  26 2.51  19 2.51  30 2.52  42 2.54  46 2.55
                            24 2.57
  54  0.170  0.590  0.385-  67 1.83  31 2.45  25 2.48  29 2.52  22 2.52  43 2.56  52 2.57  47 2.59
                            20 2.60  27 2.61
  55  0.584  0.672  0.288-  52 2.39  62 2.39  61 2.41  51 2.48  25 2.52  23 2.53  56 2.53  45 2.54
                            44 2.55  15 2.56  64 2.59  58 2.60
  56  0.829  0.661  0.288-  27 2.45  15 2.46  33 2.48  18 2.48  14 2.49  21 2.51  23 2.51  55 2.53
                            22 2.54  62 2.56  58 2.56  59 2.57
  57  0.668  0.584  0.095-  44 2.49  26 2.50  63 2.51  23 2.52  14 2.52  16 2.52  24 2.52  32 2.53
                            48 2.53
  58  0.667  0.587  0.389-  66 1.83  27 2.45  64 2.50  33 2.51  49 2.54  25 2.56  56 2.56  17 2.58
                            55 2.60  15 2.63
  59  0.082  0.916  0.285-  29 2.43  21 2.45   2 2.45   1 2.48  35 2.49  33 2.50   6 2.52  22 2.54
                            60 2.56  56 2.57  38 2.58  62 2.61
  60  0.334  0.914  0.288-  29 2.41  50 2.45   3 2.50  31 2.50   9 2.50  52 2.51   2 2.52  22 2.52
                             6 2.54  61 2.54  39 2.55  59 2.56
  61  0.583  0.910  0.289-  52 2.39  62 2.39  55 2.41  51 2.48  34 2.50  31 2.53  60 2.54  12 2.54
                            10 2.55   3 2.57  64 2.57  39 2.58
  62  0.820  0.910  0.287-  61 2.39  55 2.39  23 2.47  34 2.47  33 2.49  10 2.53  56 2.56  35 2.56
                            41 2.56  64 2.57   1 2.59  59 2.61
  63  0.668  0.834  0.097-  23 2.49  57 2.51  51 2.52  40 2.53  24 2.53  30 2.54  34 2.54  11 2.54
                            32 2.54
  64  0.665  0.833  0.390-  69 1.80  58 2.50  33 2.53  41 2.54  31 2.54  12 2.56  25 2.56  62 2.57
                            61 2.57  55 2.59
  65  0.007  0.012  0.436-  38 1.85  41 1.85  33 1.95
  66  0.494  0.492  0.437-  58 1.83  17 1.85  25 1.89
  67  0.003  0.504  0.436-  54 1.83  20 1.86  27 1.89
  68  0.499  0.004  0.436-   9 1.84  12 1.85  31 1.86
  69  0.682  0.829  0.474-  70 0.98  64 1.80
  70  0.784  0.887  0.493-  69 0.98
 

IMPORTANT INFORMATION: All symmetrisations will be switched off!
NOSYMM: (Re-)initialisation of all symmetry stuff for point group C_1.

 
 

Automatic generation of k-mesh.
 generate k-points for:    4    4    2
Space group operators:
 irot       det(A)        alpha          n_x          n_y          n_z        tau_x        tau_y        tau_z
    1     1.000000     0.000000     1.000000     0.000000     0.000000     0.000000     0.000000     0.000000
 
 Subroutine IBZKPT returns following result:
 ===========================================
 
 Found     20 irreducible k-points:
 
 Following reciprocal coordinates:
            Coordinates               Weight
  0.000000  0.000000  0.000000      1.000000
  0.250000  0.000000  0.000000      2.000000
  0.500000  0.000000  0.000000      1.000000
  0.000000  0.250000  0.000000      2.000000
  0.250000  0.250000  0.000000      2.000000
  0.500000  0.250000  0.000000      2.000000
 -0.250000  0.250000  0.000000      2.000000
  0.000000  0.500000  0.000000      1.000000
  0.250000  0.500000  0.000000      2.000000
  0.500000  0.500000  0.000000      1.000000
  0.000000  0.000000  0.500000      1.000000
  0.250000  0.000000  0.500000      2.000000
  0.500000  0.000000  0.500000      1.000000
  0.000000  0.250000  0.500000      2.000000
  0.250000  0.250000  0.500000      2.000000
  0.500000  0.250000  0.500000      2.000000
 -0.250000  0.250000  0.500000      2.000000
  0.000000  0.500000  0.500000      1.000000
  0.250000  0.500000  0.500000      2.000000
  0.500000  0.500000  0.500000      1.000000
 
 Following cartesian coordinates:
            Coordinates               Weight
  0.000000  0.000000  0.000000      1.000000
  0.024752  0.014290  0.000000      2.000000
  0.049503  0.028581  0.000000      1.000000
  0.000000  0.028581  0.000000      2.000000
  0.024752  0.042871  0.000000      2.000000
  0.049503  0.057162  0.000000      2.000000
 -0.024752  0.014290  0.000000      2.000000
  0.000000  0.057162  0.000000      1.000000
  0.024752  0.071452  0.000000      2.000000
  0.049503  0.085742  0.000000      1.000000
  0.000000  0.000000  0.023525      1.000000
  0.024752  0.014290  0.023525      2.000000
  0.049503  0.028581  0.023525      1.000000
  0.000000  0.028581  0.023525      2.000000
  0.024752  0.042871  0.023525      2.000000
  0.049503  0.057162  0.023525      2.000000
 -0.024752  0.014290  0.023525      2.000000
  0.000000  0.057162  0.023525      1.000000
  0.024752  0.071452  0.023525      2.000000
  0.049503  0.085742  0.023525      1.000000
 
 TETIRR: Found     96 inequivalent tetrahedra from      192


--------------------------------------------------------------------------------------------------------




 Dimension of arrays:
   k-points           NKPTS =     20   k-points in BZ     NKDIM =     20   number of bands    NBANDS=    402
   number of dos      NEDOS =    301   number of ions     NIONS =     70
   non local maximal  LDIM  =      6   non local SUM 2l+1 LMDIM =     18
   total plane-waves  NPLWV = ******
   max r-space proj   IRMAX =   8292   max aug-charges    IRDMAX=  19623
   dimension x,y,z NGX =    80 NGY =   80 NGZ =  160
   dimension x,y,z NGXF=   160 NGYF=  160 NGZF=  320
   support grid    NGXF=   160 NGYF=  160 NGZF=  320
   ions per type =              33  31   5   1
   NGX,Y,Z   is equivalent  to a cutoff of  13.17, 13.17, 12.52 a.u.
   NGXF,Y,Z  is equivalent  to a cutoff of  26.34, 26.34, 25.03 a.u.

 SYSTEM =  SQS-NiFe                                
 POSCAR =  POSCAR                                  

 Startparameter for this run:
   NWRITE =      2    write-flag & timer
   PREC   = accura    normal or accurate (medium, high low for compatibility)
   ISTART =      0    job   : 0-new  1-cont  2-samecut
   ICHARG =     11    charge: 1-file 2-atom 10-const
   ISPIN  =      2    spin polarized calculation?
   LNONCOLLINEAR =      F non collinear calculations
   LSORBIT =      F    spin-orbit coupling
   INIWAV =      1    electr: 0-lowe 1-rand  2-diag
   LASPH  =      F    aspherical Exc in radial PAW
   METAGGA=      F    non-selfconsistent MetaGGA calc.

 Electronic Relaxation 1
   ENCUT  =  520.0 eV  38.22 Ry    6.18 a.u.  18.78 18.78 39.52*2*pi/ulx,y,z
   ENINI  =  520.0     initial cutoff
   ENAUG  =  605.4 eV  augmentation charge cutoff
   NELM   =    200;   NELMIN=  2; NELMDL=  0     # of ELM steps 
   EDIFF  = 0.1E-05   stopping-criterion for ELM
   LREAL  =      T    real-space projection
   NLSPLINE    = F    spline interpolate recip. space projectors
   LCOMPAT=      F    compatible to vasp.4.4
   GGA_COMPAT  = T    GGA compatible to vasp.4.4-vasp.4.6
   LMAXPAW     = -100 max onsite density
   LMAXMIX     =    2 max onsite mixed and CHGCAR
   VOSKOWN=      0    Vosko Wilk Nusair interpolation
   ROPT   =   -0.00025  -0.00025  -0.00025  -0.00025
 Ionic relaxation
   EDIFFG = -.2E-01   stopping-criterion for IOM
   NSW    =      0    number of steps for IOM
   NBLOCK =      1;   KBLOCK =      1    inner block; outer block 
   IBRION =     -1    ionic relax: 0-MD 1-quasi-New 2-CG
   NFREE  =      0    steps in history (QN), initial steepest desc. (CG)
   ISIF   =      2    stress and relaxation
   IWAVPR =     10    prediction:  0-non 1-charg 2-wave 3-comb
   ISYM   =      0    0-nonsym 1-usesym 2-fastsym
   LCORR  =      T    Harris-Foulkes like correction to forces

   POTIM  = 0.5000    time-step for ionic-motion
   TEIN   =    0.0    initial temperature
   TEBEG  =    0.0;   TEEND  =   0.0 temperature during run
   SMASS  =  -3.00    Nose mass-parameter (am)
   estimated Nose-frequenzy (Omega)   =  0.10E-29 period in steps =****** mass=  -0.233E-26a.u.
   SCALEE = 1.0000    scale energy and forces
   NPACO  =    256;   APACO  = 16.0  distance and # of slots for P.C.
   PSTRESS=    0.0 pullay stress

  Mass of Ions in am
   POMASS =  58.69 55.85 16.00  1.00
  Ionic Valenz
   ZVAL   =  10.00  8.00  6.00  1.00
  Atomic Wigner-Seitz radii
   RWIGS  =  -1.00 -1.00 -1.00 -1.00
  virtual crystal weights 
   VCA    =   1.00  1.00  1.00  1.00
   NELECT =     609.0000    total number of electrons
   NUPDOWN=      -1.0000    fix difference up-down

 DOS related values:
   EMIN   =  10.00;   EMAX   =-10.00  energy-range for DOS
   EFERMI =   0.00
   ISMEAR =    -5;   SIGMA  =   0.20  broadening in eV -4-tet -1-fermi 0-gaus

 Electronic relaxation 2 (details)
   IALGO  =     68    algorithm
   LDIAG  =      T    sub-space diagonalisation (order eigenvalues)
   LSUBROT=      F    optimize rotation matrix (better conditioning)
   TURBO    =      0    0=normal 1=particle mesh
   IRESTART =      0    0=no restart 2=restart with 2 vectors
   NREBOOT  =      0    no. of reboots
   NMIN     =      0    reboot dimension
   EREF     =   0.00    reference energy to select bands
   IMIX   =      4    mixing-type and parameters
     AMIX     =   0.40;   BMIX     =  1.00
     AMIX_MAG =   1.60;   BMIX_MAG =  1.00
     AMIN     =   0.10
     WC   =   100.;   INIMIX=   1;  MIXPRE=   1;  MAXMIX= -45

 Intra band minimization:
   WEIMIN = 0.0000     energy-eigenvalue tresh-hold
   EBREAK =  0.62E-09  absolut break condition
   DEPER  =   0.30     relativ break condition  

   TIME   =   0.40     timestep for ELM

  volume/ion in A,a.u.               =      26.82       181.02
  Fermi-wavevector in a.u.,A,eV,Ry     =   1.124782  2.125530 17.213203  1.265135
  Thomas-Fermi vector in A             =   2.261456
 
 Write flags
   LWAVE        =      F    write WAVECAR
   LDOWNSAMPLE  =      F    k-point downsampling of WAVECAR
   LCHARG       =      F    write CHGCAR
   LVTOT        =      F    write LOCPOT, total local potential
   LVHAR        =      F    write LOCPOT, Hartree potential only
   LELF         =      F    write electronic localiz. function (ELF)
   LORBIT       =     11    0 simple, 1 ext, 2 COOP (PROOUT), +10 PAW based schemes


 Dipole corrections
   LMONO  =      F    monopole corrections only (constant potential shift)
   LDIPOL =      T    correct potential (dipole corrections)
   IDIPOL =      3    1-x, 2-y, 3-z, 4-all directions 
   EPSILON=  1.0000000 bulk dielectric constant

 Exchange correlation treatment:
   GGA     =    --    GGA type
   LEXCH   =     8    internal setting for exchange type
   VOSKOWN=      0    Vosko Wilk Nusair interpolation
   LHFCALC =     F    Hartree Fock is set to
   LHFONE  =     F    Hartree Fock one center treatment
   AEXX    =    0.0000 exact exchange contribution

 Linear response parameters
   LEPSILON=     F    determine dielectric tensor
   LRPA    =     F    only Hartree local field effects (RPA)
   LNABLA  =     F    use nabla operator in PAW spheres
   LVEL    =     F    velocity operator in full k-point grid
   LINTERFAST=   F  fast interpolation
   KINTER  =     0    interpolate to denser k-point grid
   CSHIFT  =0.1000    complex shift for real part using Kramers Kronig
   OMEGAMAX=  -1.0    maximum frequency
   DEG_THRESHOLD= 0.2000000E-02 threshold for treating states as degnerate
   RTIME   =   -0.100 relaxation time in fs
  (WPLASMAI=    0.000 imaginary part of plasma frequency in eV, 0.658/RTIME)
   DFIELD  = 0.0000000 0.0000000 0.0000000 field for delta impulse in time
 
 Orbital magnetization related:
   ORBITALMAG=     F  switch on orbital magnetization
   LCHIMAG   =     F  perturbation theory with respect to B field
   DQ        =  0.001000  dq finite difference perturbation B field
   LLRAUG    =     F  two centre corrections for induced B field



--------------------------------------------------------------------------------------------------------


 Static calculation
 charge density and potential remain constant during run
 spin polarized calculation
 RMM-DIIS sequential band-by-band and
  variant of blocked Davidson during initial phase
 perform sub-space diagonalisation
    before iterative eigenvector-optimisation
 no mixing
 using additional bands           97
 real space projection scheme for non local part
 use partial core corrections
 calculate Harris-corrections to forces 
   (improved forces if not selfconsistent)
 use gradient corrections 
 WARNING: stress and forces are not correct
  (second derivative of E(xc) not defined)
 use of overlap-Matrix (Vanderbilt PP)
 Fermi weights with tetrahedron method with Bloechl corrections


--------------------------------------------------------------------------------------------------------


  energy-cutoff  :      520.00
  volume of cell :     1877.75
      direct lattice vectors                 reciprocal lattice vectors
    10.100310000  0.000000000  0.000000000     0.099006862  0.057161638  0.000000000
    -5.050155000  8.747125050  0.000000000     0.000000000  0.114323277  0.000000000
     0.000000000  0.000000000 21.253800000     0.000000000  0.000000000  0.047050410

  length of vectors
    10.100310000 10.100310003 21.253800000     0.114323277  0.114323277  0.047050410


 
 k-points in units of 2pi/SCALE and weight: read from INCAR                         
   0.00000000  0.00000000  0.00000000       0.031
   0.02475172  0.01429041  0.00000000       0.062
   0.04950343  0.02858082  0.00000000       0.031
   0.00000000  0.02858082  0.00000000       0.062
   0.02475172  0.04287123  0.00000000       0.062
   0.04950343  0.05716164  0.00000000       0.062
  -0.02475172  0.01429041  0.00000000       0.062
   0.00000000  0.05716164  0.00000000       0.031
   0.02475172  0.07145205  0.00000000       0.062
   0.04950343  0.08574246  0.00000000       0.031
   0.00000000  0.00000000  0.02352520       0.031
   0.02475172  0.01429041  0.02352520       0.062
   0.04950343  0.02858082  0.02352520       0.031
   0.00000000  0.02858082  0.02352520       0.062
   0.02475172  0.04287123  0.02352520       0.062
   0.04950343  0.05716164  0.02352520       0.062
  -0.02475172  0.01429041  0.02352520       0.062
   0.00000000  0.05716164  0.02352520       0.031
   0.02475172  0.07145205  0.02352520       0.062
   0.04950343  0.08574246  0.02352520       0.031
 
 k-points in reciprocal lattice and weights: read from INCAR                         
   0.00000000  0.00000000  0.00000000       0.031
   0.25000000  0.00000000  0.00000000       0.062
   0.50000000  0.00000000  0.00000000       0.031
   0.00000000  0.25000000  0.00000000       0.062
   0.25000000  0.25000000  0.00000000       0.062
   0.50000000  0.25000000  0.00000000       0.062
  -0.25000000  0.25000000  0.00000000       0.062
   0.00000000  0.50000000  0.00000000       0.031
   0.25000000  0.50000000  0.00000000       0.062
   0.50000000  0.50000000  0.00000000       0.031
   0.00000000  0.00000000  0.50000000       0.031
   0.25000000  0.00000000  0.50000000       0.062
   0.50000000  0.00000000  0.50000000       0.031
   0.00000000  0.25000000  0.50000000       0.062
   0.25000000  0.25000000  0.50000000       0.062
   0.50000000  0.25000000  0.50000000       0.062
  -0.25000000  0.25000000  0.50000000       0.062
   0.00000000  0.50000000  0.50000000       0.031
   0.25000000  0.50000000  0.50000000       0.062
   0.50000000  0.50000000  0.50000000       0.031
 
 position of ions in fractional coordinates (direct lattice) 
   0.99904300  0.00064200  0.19052300
   0.24849100  0.99862800  0.19205500
   0.49902500  0.00192700  0.19180600
   0.99813900  0.25067400  0.19194200
   0.24921500  0.24886200  0.19118600
   0.33213842  0.16462077  0.28726279
   0.74893500  0.25278100  0.19317500
   0.41837500  0.08394000  0.09411800
   0.41636741  0.08563779  0.38215504
   0.83134024  0.16630610  0.28950766
   0.66797000  0.08472300  0.09569300
   0.66707419  0.08675463  0.38359805
   0.99908600  0.49910800  0.19304000
   0.74816900  0.49871100  0.19204600
   0.58352175  0.41869547  0.28636674
   0.41961000  0.33337100  0.09414000
   0.41434936  0.32967730  0.38116201
   0.83008619  0.41621812  0.28743072
   0.91855900  0.33501600  0.09568700
   0.91372671  0.33198226  0.38452284
   0.99765800  0.74896900  0.19256000
   0.08275856  0.66575174  0.28695096
   0.75346500  0.75172800  0.19162900
   0.41737300  0.58352400  0.09623400
   0.41165536  0.58104587  0.38293474
   0.91550800  0.58461900  0.09542900
   0.90958102  0.58590542  0.38410172
   0.16682900  0.83490800  0.09456700
   0.16476467  0.83632828  0.37717516
   0.41715300  0.83338800  0.09679300
   0.41330530  0.83211795  0.38503664
   0.91985100  0.83263700  0.09539800
   0.91604883  0.83419585  0.38059716
   0.74918200  0.00453800  0.19311300
   0.07652111  0.16072379  0.28444255
   0.49319000  0.24544000  0.19167800
   0.17139600  0.08339300  0.09535900
   0.17547189  0.08577017  0.38398097
   0.58629187  0.16665921  0.28552012
   0.91693100  0.08581500  0.09410100
   0.91377745  0.08766313  0.38343896
   0.24596400  0.49669300  0.19369900
   0.07662368  0.41770568  0.28727633
   0.50297300  0.49962100  0.19096300
   0.33609911  0.41670941  0.28539469
   0.17081400  0.33724200  0.09550500
   0.16426107  0.33148442  0.37670371
   0.67264700  0.33598100  0.09600300
   0.66613890  0.33571425  0.37888749
   0.24490500  0.75270000  0.19343600
   0.49840300  0.74988300  0.19260700
   0.34801431  0.67263583  0.28869782
   0.16470600  0.58627100  0.09733100
   0.17042142  0.59012574  0.38473815
   0.58402547  0.67213661  0.28783437
   0.82874235  0.66129286  0.28818176
   0.66762500  0.58426200  0.09519900
   0.66725317  0.58693901  0.38880608
   0.08157571  0.91629959  0.28476677
   0.33383458  0.91414193  0.28782858
   0.58324972  0.91023107  0.28854332
   0.81991508  0.91029115  0.28749467
   0.66841400  0.83351100  0.09659800
   0.66547531  0.83314186  0.39017090
   0.00675460  0.01237129  0.43583370
   0.49423242  0.49190279  0.43715366
   0.00250521  0.50406314  0.43613889
   0.49876807  0.00425390  0.43616921
   0.68224547  0.82929106  0.47420310
   0.78388931  0.88699553  0.49303272
 
 position of ions in cartesian coordinates  (Angst):
  10.08740180  0.00561565  4.04933774
  -2.53339006  8.73512399  4.08189856
   5.03057555  0.01685571  4.07660636
   8.81557077  2.19267682  4.07949688
   1.26035708  2.17682703  4.06342901
   2.52334056  1.43995845  6.10542595
   6.28789244  2.21110702  4.10570281
   3.80180719  0.73423368  2.00036515
   3.77295577  0.74908449  8.12224677
   7.55692260  1.45470022  6.15313793
   6.31883979  0.74108268  2.03383988
   6.29953181  0.75885358  8.15291623
   7.57050555  4.36576009  4.10283355
   5.03817098  4.36228748  4.08170727
   3.77927356  3.66238167  6.08638147
   2.55461586  2.91603783  2.00083273
   2.52013551  2.88372860  8.10114108
   6.28216181  3.64071197  6.10899510
   7.58584793  2.93042685  2.03371236
   7.55236115  2.90389033  8.17257153
   6.29424553  6.55132550  4.09263173
  -2.52626233  5.82341373  6.09879835
   3.81388716  6.57545882  4.07284444
   1.26871004  5.10415740  2.04533819
   1.22347501  5.08248086  8.13881845
   6.29449804  5.11373550  2.02822888
   6.22813703  5.12498799  8.16362116
  -2.53139019  7.30304468  2.00990810
  -2.55941318  7.31546804  8.01640548
   0.00463604  7.28974905  2.05721906
  -0.02781298  7.27863976  8.18349182
   5.08583435  7.28317996  2.02757001
   5.03955884  7.29681541  8.08913586
   7.54405284  0.03969445  4.10438508
  -0.03879311  1.40587108  6.04548504
   3.74186185  2.14689437  4.07388588
   1.31000516  0.72944900  2.02674111
   1.33916776  0.75024244  8.16105478
   5.08007478  1.45778891  6.06838757
   8.82790830  0.75063454  2.00000383
   8.78672309  0.76680033  8.14953500
  -0.02406399  4.34463578  4.11683981
  -1.33555549  3.65372386  6.10571360
   2.55701973  4.37024736  4.05868941
   1.29025812  3.64500928  6.06572168
   0.02214998  2.94989795  2.02984417
  -0.01495999  2.89953565  8.00638526
   5.09718709  2.93886782  2.04042856
   5.03280043  2.93653451  8.05279897
  -1.32763525  6.58396103  4.11125006
   1.24699942  6.55932037  4.09363066
   0.11813717  5.88362973  6.13592568
  -1.29717776  5.12818575  2.06865361
  -1.25891735  5.16190368  8.17714779
   2.50444425  5.87926296  6.11757406
   5.03092319  5.78441136  6.12495744
   3.79260580  5.11061278  2.02334051
   3.77533085  5.13402891  8.26360676
  -3.80351498  8.01498710  6.05237605
  -1.24472569  7.99611378  6.11745100
   1.29419502  7.96190498  6.13264205
   3.68428512  7.96243048  6.11035417
   2.54182886  7.29082495  2.05307457
   2.51401144  7.28759604  8.29261419
   0.00574666  0.10821321  9.26312230
   2.50771533  4.30273522  9.29117645
  -2.52029362  4.40910335  9.26960882
   5.01622928  0.03720938  9.27025318
   2.70284233  7.25391263 10.07861785
   3.43806015  7.75866084 10.47881890
 


--------------------------------------------------------------------------------------------------------


 k-point  1 :   0.0000 0.0000 0.0000  plane waves:   50641
 k-point  2 :   0.2500 0.0000 0.0000  plane waves:   50515
 k-point  3 :   0.5000 0.0000 0.0000  plane waves:   50582
 k-point  4 :   0.0000 0.2500 0.0000  plane waves:   50515
 k-point  5 :   0.2500 0.2500 0.0000  plane waves:   50569
 k-point  6 :   0.5000 0.2500 0.0000  plane waves:   50569
 k-point  7 :  -0.2500 0.2500 0.0000  plane waves:   50515
 k-point  8 :   0.0000 0.5000 0.0000  plane waves:   50582
 k-point  9 :   0.2500 0.5000 0.0000  plane waves:   50569
 k-point 10 :   0.5000 0.5000 0.0000  plane waves:   50582
 k-point 11 :   0.0000 0.0000 0.5000  plane waves:   50528
 k-point 12 :   0.2500 0.0000 0.5000  plane waves:   50544
 k-point 13 :   0.5000 0.0000 0.5000  plane waves:   50564
 k-point 14 :   0.0000 0.2500 0.5000  plane waves:   50544
 k-point 15 :   0.2500 0.2500 0.5000  plane waves:   50528
 k-point 16 :   0.5000 0.2500 0.5000  plane waves:   50528
 k-point 17 :  -0.2500 0.2500 0.5000  plane waves:   50544
 k-point 18 :   0.0000 0.5000 0.5000  plane waves:   50564
 k-point 19 :   0.2500 0.5000 0.5000  plane waves:   50528
 k-point 20 :   0.5000 0.5000 0.5000  plane waves:   50564

 maximum and minimum number of plane-waves per node :      2132     2072

 maximum number of plane-waves:     50641
 maximum index in each direction: 
   IXMAX=   19   IYMAX=   18   IZMAX=   39
   IXMIN=  -19   IYMIN=  -19   IZMIN=  -40


 real space projection operators:
  total allocation   :      67124.23 KBytes
  max/ min on nodes  :       3378.49       2421.21


 parallel 3D FFT for wavefunctions:
    minimum data exchange during FFTs selected (reduces bandwidth)
 parallel 3D FFT for charge:
    minimum data exchange during FFTs selected (reduces bandwidth)


 total amount of memory used by VASP MPI-rank0   256123. kBytes
=======================================================================

   base      :      30000. kBytes
   nonlr-proj:      13914. kBytes
   fftplans  :       6403. kBytes
   grid      :      18928. kBytes
   one-center:         93. kBytes
   wavefun   :     186785. kBytes
 
     INWAV:  cpu time    0.0000: real time    0.0002
 initial charge density was supplied:
 number of electron     609.0000043 magnetization      84.1875466
 keeping initial charge density in first step


--------------------------------------------------------------------------------------------------------


 Maximum index for non-local projection operator          761
 Maximum index for augmentation-charges         1120 (set IRDMAX)


--------------------------------------------------------------------------------------------------------


 First call to EWALD:  gamma=   0.144
 Maximum number of real-space cells 4x 4x 2
 Maximum number of reciprocal cells 2x 2x 4

    FEWALD:  cpu time    0.0034: real time    0.0034


--------------------------------------- Iteration      1(   1)  ---------------------------------------


    POTLOK:  cpu time    0.4196: real time    0.5124
    SETDIJ:  cpu time    0.0434: real time    0.0434
     EDDAV:  cpu time  149.0017: real time  149.1528
 BZINTS: Fermi energy: 11.397842;609.000000 electrons
         Band energy:3785.712994;  BLOECHL correction: -0.014055
       DOS:  cpu time    0.2301: real time    0.2301
    --------------------------------------------
      LOOP:  cpu time  149.6949: real time  149.9388

 eigenvalue-minimisations  : 32169
 total energy-change (2. order) : 0.4992531E+04  (-0.2659169E+05)
 number of electron     609.0000043 magnetization      84.1875466
 augmentation part      609.0000043 magnetization      84.1875466

 DIPCOR: dipole corrections for dipol
 direction  3 min pos   244,
 dipolmoment           0.000000      0.000000      0.312140 electrons x Angstroem
 Tr[quadrupol]    -10435.656448

 energy correction for charged system         0.000000 eV
 dipol+quadrupol energy correction           -0.004695 eV
 added-field ion interaction          3.986124 eV  (added to PSCEN)


 Free energy of the ion-electron system (eV)
  ---------------------------------------------------
  alpha Z        PSCENC =      1456.75409443
  Ewald energy   TEWEN  =    196169.61586266
  -Hartree energ DENC   =   -251315.21445144
  -exchange      EXHF   =         0.00000000
  -V(xc)+E(xc)   XCENC  =      1289.14883305
  PAW double counting   =     61616.76245926   -64171.35947451
  entropy T*S    EENTRO =         0.00000000
  eigenvalues    EBANDS =      3785.71299382
  atomic energy  EATOM  =     56161.11034558
  Solvation  Ediel_sol  =         0.00000000
  ---------------------------------------------------
  free energy    TOTEN  =      4992.53066285 eV

  energy without entropy =     4992.53066285  energy(sigma->0) =     4992.53066285


--------------------------------------------------------------------------------------------------------




--------------------------------------- Iteration      1(   2)  ---------------------------------------


     EDDAV:  cpu time  148.7918: real time  148.8550
 BZINTS: Fermi energy:  1.382917;609.000000 electrons
         Band energy:***********;  BLOECHL correction: -0.008075
       DOS:  cpu time    0.2411: real time    0.2414
    --------------------------------------------
      LOOP:  cpu time  149.0328: real time  149.0964

 eigenvalue-minimisations  : 32160
 total energy-change (2. order) :-0.4829036E+04  (-0.4574673E+04)
 number of electron     609.0000043 magnetization      84.1875466
 augmentation part      609.0000043 magnetization      84.1875466

 DIPCOR: dipole corrections for dipol
 direction  3 min pos   244,
 dipolmoment           0.000000      0.000000      0.312140 electrons x Angstroem
 Tr[quadrupol]    -10435.656448

 energy correction for charged system         0.000000 eV
 dipol+quadrupol energy correction           -0.004695 eV
 added-field ion interaction          3.986124 eV  (added to PSCEN)


 Free energy of the ion-electron system (eV)
  ---------------------------------------------------
  alpha Z        PSCENC =      1456.75409443
  Ewald energy   TEWEN  =    196169.61586266
  -Hartree energ DENC   =   -251315.21445144
  -exchange      EXHF   =         0.00000000
  -V(xc)+E(xc)   XCENC  =      1289.14883305
  PAW double counting   =     61616.76245926   -64171.35947451
  entropy T*S    EENTRO =         0.00000000
  eigenvalues    EBANDS =     -1043.32300624
  atomic energy  EATOM  =     56161.11034558
  Solvation  Ediel_sol  =         0.00000000
  ---------------------------------------------------
  free energy    TOTEN  =       163.49466279 eV

  energy without entropy =      163.49466279  energy(sigma->0) =      163.49466279


--------------------------------------------------------------------------------------------------------




--------------------------------------- Iteration      1(   3)  ---------------------------------------


     EDDAV:  cpu time  155.7444: real time  155.8068
 BZINTS: Fermi energy:  0.160865;609.000000 electrons
         Band energy:***********;  BLOECHL correction: -0.007530
       DOS:  cpu time    0.2337: real time    0.2337
    --------------------------------------------
      LOOP:  cpu time  155.9780: real time  156.0405

 eigenvalue-minimisations  : 34116
 total energy-change (2. order) :-0.5368715E+03  (-0.4675381E+03)
 number of electron     609.0000043 magnetization      84.1875466
 augmentation part      609.0000043 magnetization      84.1875466

 DIPCOR: dipole corrections for dipol
 direction  3 min pos   244,
 dipolmoment           0.000000      0.000000      0.312140 electrons x Angstroem
 Tr[quadrupol]    -10435.656448

 energy correction for charged system         0.000000 eV
 dipol+quadrupol energy correction           -0.004695 eV
 added-field ion interaction          3.986124 eV  (added to PSCEN)


 Free energy of the ion-electron system (eV)
  ---------------------------------------------------
  alpha Z        PSCENC =      1456.75409443
  Ewald energy   TEWEN  =    196169.61586266
  -Hartree energ DENC   =   -251315.21445144
  -exchange      EXHF   =         0.00000000
  -V(xc)+E(xc)   XCENC  =      1289.14883305
  PAW double counting   =     61616.76245926   -64171.35947451
  entropy T*S    EENTRO =         0.00000000
  eigenvalues    EBANDS =     -1580.19454731
  atomic energy  EATOM  =     56161.11034558
  Solvation  Ediel_sol  =         0.00000000
  ---------------------------------------------------
  free energy    TOTEN  =      -373.37687828 eV

  energy without entropy =     -373.37687828  energy(sigma->0) =     -373.37687828


--------------------------------------------------------------------------------------------------------




--------------------------------------- Iteration      1(   4)  ---------------------------------------


     EDDAV:  cpu time  212.4656: real time  212.5466
 BZINTS: Fermi energy: -0.002764;609.000000 electrons
         Band energy:***********;  BLOECHL correction: -0.008540
       DOS:  cpu time    0.2257: real time    0.2257
    --------------------------------------------
      LOOP:  cpu time  212.6913: real time  212.7723

 eigenvalue-minimisations  : 50523
 total energy-change (2. order) :-0.7637505E+02  (-0.6640423E+02)
 number of electron     609.0000043 magnetization      84.1875466
 augmentation part      609.0000043 magnetization      84.1875466

 DIPCOR: dipole corrections for dipol
 direction  3 min pos   244,
 dipolmoment           0.000000      0.000000      0.312140 electrons x Angstroem
 Tr[quadrupol]    -10435.656448

 energy correction for charged system         0.000000 eV
 dipol+quadrupol energy correction           -0.004695 eV
 added-field ion interaction          3.986124 eV  (added to PSCEN)


 Free energy of the ion-electron system (eV)
  ---------------------------------------------------
  alpha Z        PSCENC =      1456.75409443
  Ewald energy   TEWEN  =    196169.61586266
  -Hartree energ DENC   =   -251315.21445144
  -exchange      EXHF   =         0.00000000
  -V(xc)+E(xc)   XCENC  =      1289.14883305
  PAW double counting   =     61616.76245926   -64171.35947451
  entropy T*S    EENTRO =         0.00000000
  eigenvalues    EBANDS =     -1656.56959264
  atomic energy  EATOM  =     56161.11034558
  Solvation  Ediel_sol  =         0.00000000
  ---------------------------------------------------
  free energy    TOTEN  =      -449.75192361 eV

  energy without entropy =     -449.75192361  energy(sigma->0) =     -449.75192361


--------------------------------------------------------------------------------------------------------




--------------------------------------- Iteration      1(   5)  ---------------------------------------


     EDDAV:  cpu time  163.6327: real time  163.6970
 BZINTS: Fermi energy: -0.012214;609.000000 electrons
         Band energy:***********;  BLOECHL correction: -0.009984
       DOS:  cpu time    0.2273: real time    0.2273
    --------------------------------------------
      LOOP:  cpu time  163.8600: real time  163.9243

 eigenvalue-minimisations  : 36402
 total energy-change (2. order) :-0.4722230E+01  (-0.4650772E+01)
 number of electron     609.0000043 magnetization      84.1875466
 augmentation part      609.0000043 magnetization      84.1875466

 DIPCOR: dipole corrections for dipol
 direction  3 min pos   244,
 dipolmoment           0.000000      0.000000      0.312140 electrons x Angstroem
 Tr[quadrupol]    -10435.656448

 energy correction for charged system         0.000000 eV
 dipol+quadrupol energy correction           -0.004695 eV
 added-field ion interaction          3.986124 eV  (added to PSCEN)


 Free energy of the ion-electron system (eV)
  ---------------------------------------------------
  alpha Z        PSCENC =      1456.75409443
  Ewald energy   TEWEN  =    196169.61586266
  -Hartree energ DENC   =   -251315.21445144
  -exchange      EXHF   =         0.00000000
  -V(xc)+E(xc)   XCENC  =      1289.14883305
  PAW double counting   =     61616.76245926   -64171.35947451
  entropy T*S    EENTRO =         0.00000000
  eigenvalues    EBANDS =     -1661.29182250
  atomic energy  EATOM  =     56161.11034558
  Solvation  Ediel_sol  =         0.00000000
  ---------------------------------------------------
  free energy    TOTEN  =      -454.47415347 eV

  energy without entropy =     -454.47415347  energy(sigma->0) =     -454.47415347


--------------------------------------------------------------------------------------------------------




--------------------------------------- Iteration      1(   6)  ---------------------------------------


    EDDIAG:  cpu time   22.3061: real time   22.3124
  RMM-DIIS:  cpu time   80.0734: real time   80.1072
    ORTHCH:  cpu time    6.1869: real time    6.1883
 BZINTS: Fermi energy: -0.012415;609.000000 electrons
         Band energy:***********;  BLOECHL correction: -0.009979
       DOS:  cpu time    0.2310: real time    0.2310
    --------------------------------------------
      LOOP:  cpu time  108.7974: real time  108.8390

 eigenvalue-minimisations  : 32798
 total energy-change (2. order) :-0.9080421E-01  (-0.9079455E-01)
 number of electron     609.0000043 magnetization      84.1875466
 augmentation part      609.0000043 magnetization      84.1875466

 DIPCOR: dipole corrections for dipol
 direction  3 min pos   244,
 dipolmoment           0.000000      0.000000      0.312140 electrons x Angstroem
 Tr[quadrupol]    -10435.656448

 energy correction for charged system         0.000000 eV
 dipol+quadrupol energy correction           -0.004695 eV
 added-field ion interaction          3.986124 eV  (added to PSCEN)


 Free energy of the ion-electron system (eV)
  ---------------------------------------------------
  alpha Z        PSCENC =      1456.75409443
  Ewald energy   TEWEN  =    196169.61586266
  -Hartree energ DENC   =   -251315.21445144
  -exchange      EXHF   =         0.00000000
  -V(xc)+E(xc)   XCENC  =      1289.14883305
  PAW double counting   =     61616.76245926   -64171.35947451
  entropy T*S    EENTRO =         0.00000000
  eigenvalues    EBANDS =     -1661.38262671
  atomic energy  EATOM  =     56161.11034558
  Solvation  Ediel_sol  =         0.00000000
  ---------------------------------------------------
  free energy    TOTEN  =      -454.56495768 eV

  energy without entropy =     -454.56495768  energy(sigma->0) =     -454.56495768


--------------------------------------------------------------------------------------------------------




--------------------------------------- Iteration      1(   7)  ---------------------------------------


    EDDIAG:  cpu time   22.2404: real time   22.2565
  RMM-DIIS:  cpu time  117.7631: real time  117.8113
    ORTHCH:  cpu time    6.2118: real time    6.2131
 BZINTS: Fermi energy: -0.012440;609.000000 electrons
         Band energy:***********;  BLOECHL correction: -0.009979
       DOS:  cpu time    0.2266: real time    0.2267
    --------------------------------------------
      LOOP:  cpu time  146.4419: real time  146.5076

 eigenvalue-minimisations  : 49455
 total energy-change (2. order) :-0.1686975E-01  (-0.1787617E-01)
 number of electron     609.0000043 magnetization      84.1875466
 augmentation part      609.0000043 magnetization      84.1875466

 DIPCOR: dipole corrections for dipol
 direction  3 min pos   244,
 dipolmoment           0.000000      0.000000      0.312140 electrons x Angstroem
 Tr[quadrupol]    -10435.656448

 energy correction for charged system         0.000000 eV
 dipol+quadrupol energy correction           -0.004695 eV
 added-field ion interaction          3.986124 eV  (added to PSCEN)


 Free energy of the ion-electron system (eV)
  ---------------------------------------------------
  alpha Z        PSCENC =      1456.75409443
  Ewald energy   TEWEN  =    196169.61586266
  -Hartree energ DENC   =   -251315.21445144
  -exchange      EXHF   =         0.00000000
  -V(xc)+E(xc)   XCENC  =      1289.14883305
  PAW double counting   =     61616.76245926   -64171.35947451
  entropy T*S    EENTRO =         0.00000000
  eigenvalues    EBANDS =     -1661.39949646
  atomic energy  EATOM  =     56161.11034558
  Solvation  Ediel_sol  =         0.00000000
  ---------------------------------------------------
  free energy    TOTEN  =      -454.58182743 eV

  energy without entropy =     -454.58182743  energy(sigma->0) =     -454.58182743


--------------------------------------------------------------------------------------------------------




--------------------------------------- Iteration      1(   8)  ---------------------------------------


    EDDIAG:  cpu time   22.2370: real time   22.2536
  RMM-DIIS:  cpu time  143.5610: real time  143.6340
    ORTHCH:  cpu time    6.1752: real time    6.1767
 BZINTS: Fermi energy: -0.012435;609.000000 electrons
         Band energy:***********;  BLOECHL correction: -0.009979
       DOS:  cpu time    0.2148: real time    0.2148
    --------------------------------------------
      LOOP:  cpu time  172.1880: real time  172.2791

 eigenvalue-minimisations  : 60497
 total energy-change (2. order) : 0.5318731E-03  (-0.6622787E-03)
 number of electron     609.0000043 magnetization      84.1875466
 augmentation part      609.0000043 magnetization      84.1875466

 DIPCOR: dipole corrections for dipol
 direction  3 min pos   244,
 dipolmoment           0.000000      0.000000      0.312140 electrons x Angstroem
 Tr[quadrupol]    -10435.656448

 energy correction for charged system         0.000000 eV
 dipol+quadrupol energy correction           -0.004695 eV
 added-field ion interaction          3.986124 eV  (added to PSCEN)


 Free energy of the ion-electron system (eV)
  ---------------------------------------------------
  alpha Z        PSCENC =      1456.75409443
  Ewald energy   TEWEN  =    196169.61586266
  -Hartree energ DENC   =   -251315.21445144
  -exchange      EXHF   =         0.00000000
  -V(xc)+E(xc)   XCENC  =      1289.14883305
  PAW double counting   =     61616.76245926   -64171.35947451
  entropy T*S    EENTRO =         0.00000000
  eigenvalues    EBANDS =     -1661.39896459
  atomic energy  EATOM  =     56161.11034558
  Solvation  Ediel_sol  =         0.00000000
  ---------------------------------------------------
  free energy    TOTEN  =      -454.58129555 eV

  energy without entropy =     -454.58129555  energy(sigma->0) =     -454.58129555


--------------------------------------------------------------------------------------------------------




--------------------------------------- Iteration      1(   9)  ---------------------------------------


    EDDIAG:  cpu time   22.2981: real time   22.3166
  RMM-DIIS:  cpu time  127.7045: real time  127.7728
    ORTHCH:  cpu time    6.1813: real time    6.1833
 BZINTS: Fermi energy: -0.012435;609.000000 electrons
         Band energy:***********;  BLOECHL correction: -0.009979
       DOS:  cpu time    0.2188: real time    0.2188
    --------------------------------------------
      LOOP:  cpu time  156.4027: real time  156.4916

 eigenvalue-minimisations  : 53441
 total energy-change (2. order) :-0.2207262E-03  (-0.2626112E-03)
 number of electron     609.0000043 magnetization      84.1875466
 augmentation part      609.0000043 magnetization      84.1875466

 DIPCOR: dipole corrections for dipol
 direction  3 min pos   244,
 dipolmoment           0.000000      0.000000      0.312140 electrons x Angstroem
 Tr[quadrupol]    -10435.656448

 energy correction for charged system         0.000000 eV
 dipol+quadrupol energy correction           -0.004695 eV
 added-field ion interaction          3.986124 eV  (added to PSCEN)


 Free energy of the ion-electron system (eV)
  ---------------------------------------------------
  alpha Z        PSCENC =      1456.75409443
  Ewald energy   TEWEN  =    196169.61586266
  -Hartree energ DENC   =   -251315.21445144
  -exchange      EXHF   =         0.00000000
  -V(xc)+E(xc)   XCENC  =      1289.14883305
  PAW double counting   =     61616.76245926   -64171.35947451
  entropy T*S    EENTRO =         0.00000000
  eigenvalues    EBANDS =     -1661.39918531
  atomic energy  EATOM  =     56161.11034558
  Solvation  Ediel_sol  =         0.00000000
  ---------------------------------------------------
  free energy    TOTEN  =      -454.58151628 eV

  energy without entropy =     -454.58151628  energy(sigma->0) =     -454.58151628


--------------------------------------------------------------------------------------------------------




--------------------------------------- Iteration      1(  10)  ---------------------------------------


    EDDIAG:  cpu time   22.2782: real time   22.2959
  RMM-DIIS:  cpu time   98.8790: real time   98.9261
    ORTHCH:  cpu time    6.1837: real time    6.1853
 BZINTS: Fermi energy: -0.012435;609.000000 electrons
         Band energy:***********;  BLOECHL correction: -0.009979
       DOS:  cpu time    0.2086: real time    0.2086
    --------------------------------------------
      LOOP:  cpu time  127.5494: real time  127.6159

 eigenvalue-minimisations  : 41161
 total energy-change (2. order) : 0.5066715E-05  (-0.3519161E-04)
 number of electron     609.0000043 magnetization      84.1875466
 augmentation part      609.0000043 magnetization      84.1875466

 DIPCOR: dipole corrections for dipol
 direction  3 min pos   244,
 dipolmoment           0.000000      0.000000      0.312140 electrons x Angstroem
 Tr[quadrupol]    -10435.656448

 energy correction for charged system         0.000000 eV
 dipol+quadrupol energy correction           -0.004695 eV
 added-field ion interaction          3.986124 eV  (added to PSCEN)


 Free energy of the ion-electron system (eV)
  ---------------------------------------------------
  alpha Z        PSCENC =      1456.75409443
  Ewald energy   TEWEN  =    196169.61586266
  -Hartree energ DENC   =   -251315.21445144
  -exchange      EXHF   =         0.00000000
  -V(xc)+E(xc)   XCENC  =      1289.14883305
  PAW double counting   =     61616.76245926   -64171.35947451
  entropy T*S    EENTRO =         0.00000000
  eigenvalues    EBANDS =     -1661.39918025
  atomic energy  EATOM  =     56161.11034558
  Solvation  Ediel_sol  =         0.00000000
  ---------------------------------------------------
  free energy    TOTEN  =      -454.58151121 eV

  energy without entropy =     -454.58151121  energy(sigma->0) =     -454.58151121


--------------------------------------------------------------------------------------------------------




--------------------------------------- Iteration      1(  11)  ---------------------------------------


    EDDIAG:  cpu time   22.2920: real time   22.3088
  RMM-DIIS:  cpu time   62.4506: real time   62.4757
    ORTHCH:  cpu time    6.1803: real time    6.1818
 BZINTS: Fermi energy: -0.012435;609.000000 electrons
         Band energy:***********;  BLOECHL correction: -0.009979
       DOS:  cpu time    0.2185: real time    0.2185
    --------------------------------------------
      LOOP:  cpu time   91.1413: real time   91.1848

 eigenvalue-minimisations  : 25002
 total energy-change (2. order) :-0.1132218E-04  (-0.1756852E-04)
 number of electron     609.0000043 magnetization      84.1875466
 augmentation part      609.0000043 magnetization      84.1875466

 DIPCOR: dipole corrections for dipol
 direction  3 min pos   244,
 dipolmoment           0.000000      0.000000      0.312140 electrons x Angstroem
 Tr[quadrupol]    -10435.656448

 energy correction for charged system         0.000000 eV
 dipol+quadrupol energy correction           -0.004695 eV
 added-field ion interaction          3.986124 eV  (added to PSCEN)


 Free energy of the ion-electron system (eV)
  ---------------------------------------------------
  alpha Z        PSCENC =      1456.75409443
  Ewald energy   TEWEN  =    196169.61586266
  -Hartree energ DENC   =   -251315.21445144
  -exchange      EXHF   =         0.00000000
  -V(xc)+E(xc)   XCENC  =      1289.14883305
  PAW double counting   =     61616.76245926   -64171.35947451
  entropy T*S    EENTRO =         0.00000000
  eigenvalues    EBANDS =     -1661.39919157
  atomic energy  EATOM  =     56161.11034558
  Solvation  Ediel_sol  =         0.00000000
  ---------------------------------------------------
  free energy    TOTEN  =      -454.58152253 eV

  energy without entropy =     -454.58152253  energy(sigma->0) =     -454.58152253


--------------------------------------------------------------------------------------------------------




--------------------------------------- Iteration      1(  12)  ---------------------------------------


    EDDIAG:  cpu time   22.2736: real time   22.2899
  RMM-DIIS:  cpu time   52.8282: real time   52.8462
    ORTHCH:  cpu time    6.1915: real time    6.1928
 BZINTS: Fermi energy: -0.012435;609.000000 electrons
         Band energy:***********;  BLOECHL correction: -0.009979
       DOS:  cpu time    0.2188: real time    0.2188
    --------------------------------------------
      LOOP:  cpu time   81.5121: real time   81.5477

 eigenvalue-minimisations  : 20655
 total energy-change (2. order) :-0.5536713E-06  (-0.4017314E-05)
 number of electron     609.0000043 magnetization      84.1875466
 augmentation part      609.0000043 magnetization      84.1875466

 DIPCOR: dipole corrections for dipol
 direction  3 min pos   244,
 dipolmoment           0.000000      0.000000      0.312140 electrons x Angstroem
 Tr[quadrupol]    -10435.656448

 energy correction for charged system         0.000000 eV
 dipol+quadrupol energy correction           -0.004695 eV
 added-field ion interaction          3.986124 eV  (added to PSCEN)


 Free energy of the ion-electron system (eV)
  ---------------------------------------------------
  alpha Z        PSCENC =      1456.75409443
  Ewald energy   TEWEN  =    196169.61586266
  -Hartree energ DENC   =   -251315.21445144
  -exchange      EXHF   =         0.00000000
  -V(xc)+E(xc)   XCENC  =      1289.14883305
  PAW double counting   =     61616.76245926   -64171.35947451
  entropy T*S    EENTRO =         0.00000000
  eigenvalues    EBANDS =     -1661.39919212
  atomic energy  EATOM  =     56161.11034558
  Solvation  Ediel_sol  =         0.00000000
  ---------------------------------------------------
  free energy    TOTEN  =      -454.58152309 eV

  energy without entropy =     -454.58152309  energy(sigma->0) =     -454.58152309


--------------------------------------------------------------------------------------------------------




--------------------------------------- Iteration      1(  13)  ---------------------------------------


    EDDIAG:  cpu time   22.2681: real time   22.2834
  RMM-DIIS:  cpu time   50.9420: real time   50.9578
    ORTHCH:  cpu time    6.1905: real time    6.1918
 BZINTS: Fermi energy: -0.012435;609.000000 electrons
         Band energy:***********;  BLOECHL correction: -0.009979
       DOS:  cpu time    0.2135: real time    0.2135
    --------------------------------------------
      LOOP:  cpu time   79.6141: real time   79.6465

 eigenvalue-minimisations  : 19717
 total energy-change (2. order) :-0.2896122E-06  (-0.1327889E-05)
 number of electron     609.0000043 magnetization      84.1875466
 augmentation part      609.0000043 magnetization      84.1875466

 DIPCOR: dipole corrections for dipol
 direction  3 min pos   244,
 dipolmoment           0.000000      0.000000      0.312140 electrons x Angstroem
 Tr[quadrupol]    -10435.656448

 energy correction for charged system         0.000000 eV
 dipol+quadrupol energy correction           -0.004695 eV
 added-field ion interaction          3.986124 eV  (added to PSCEN)


 Free energy of the ion-electron system (eV)
  ---------------------------------------------------
  alpha Z        PSCENC =      1456.75409443
  Ewald energy   TEWEN  =    196169.61586266
  -Hartree energ DENC   =   -251315.21445144
  -exchange      EXHF   =         0.00000000
  -V(xc)+E(xc)   XCENC  =      1289.14883305
  PAW double counting   =     61616.76245926   -64171.35947451
  entropy T*S    EENTRO =         0.00000000
  eigenvalues    EBANDS =     -1661.39919241
  atomic energy  EATOM  =     56161.11034558
  Solvation  Ediel_sol  =         0.00000000
  ---------------------------------------------------
  free energy    TOTEN  =      -454.58152338 eV

  energy without entropy =     -454.58152338  energy(sigma->0) =     -454.58152338


--------------------------------------------------------------------------------------------------------




--------------------------------------- Iteration      1(  14)  ---------------------------------------


    EDDIAG:  cpu time   22.2811: real time   22.2993
  RMM-DIIS:  cpu time   49.2235: real time   49.2435
    ORTHCH:  cpu time    6.1802: real time    6.1816
 BZINTS: Fermi energy: -0.012435;609.000000 electrons
         Band energy:***********;  BLOECHL correction: -0.009979
       DOS:  cpu time    0.2085: real time    0.2085
    --------------------------------------------
      LOOP:  cpu time   77.8933: real time   77.9329

 eigenvalue-minimisations  : 18841
 total energy-change (2. order) :-0.1006993E-06  (-0.4153666E-06)
 number of electron     609.0000043 magnetization      84.1875466
 augmentation part      609.0000043 magnetization      84.1875466

 DIPCOR: dipole corrections for dipol
 direction  3 min pos   244,
 dipolmoment           0.000000      0.000000      0.312140 electrons x Angstroem
 Tr[quadrupol]    -10435.656448

 energy correction for charged system         0.000000 eV
 dipol+quadrupol energy correction           -0.004695 eV
 added-field ion interaction          3.986124 eV  (added to PSCEN)


 Free energy of the ion-electron system (eV)
  ---------------------------------------------------
  alpha Z        PSCENC =      1456.75409443
  Ewald energy   TEWEN  =    196169.61586266
  -Hartree energ DENC   =   -251315.21445144
  -exchange      EXHF   =         0.00000000
  -V(xc)+E(xc)   XCENC  =      1289.14883305
  PAW double counting   =     61616.76245926   -64171.35947451
[...]
   0.452E+01 0.549E+02 -.237E+04   -.464E+01 -.577E+02 0.236E+04   -.647E+00 0.286E+01 0.145E+01   0.765E+00 -.736E-01 0.855E-01
   -.109E+02 0.701E+02 0.815E+03   0.110E+02 -.710E+02 -.815E+03   -.157E-01 0.403E-02 0.157E+00   0.535E-01 0.820E+00 -.666E+00
   -.311E+01 -.210E+02 -.602E+03   0.302E+01 0.209E+02 0.603E+03   -.129E+00 -.276E+00 -.490E-01   0.201E+00 0.372E+00 -.903E+00
   0.125E+02 -.369E+02 0.841E+03   -.126E+02 0.368E+02 -.841E+03   -.119E+00 -.966E-01 -.357E+00   0.991E-01 0.293E+00 -.117E+00
   0.634E+02 -.477E+02 0.228E+04   -.637E+02 0.479E+02 -.228E+04   0.307E+00 -.393E+00 -.236E+01   -.412E-01 0.147E+00 0.141E+00
   -.138E+02 -.741E+02 -.198E+04   0.141E+02 0.746E+02 0.198E+04   -.622E+00 -.453E+00 0.181E+01   0.391E+00 -.272E-01 -.331E+00
   0.230E+02 0.446E+02 -.556E+03   -.230E+02 -.449E+02 0.556E+03   0.167E+00 -.283E+00 0.612E+00   -.175E+00 0.612E+00 -.452E+00
   -.191E+02 0.114E+02 0.227E+04   0.190E+02 -.117E+02 -.227E+04   -.159E+00 -.106E+00 -.290E+01   0.261E+00 0.278E+00 0.708E-01
   0.101E+02 -.753E+02 -.193E+04   -.106E+02 0.759E+02 0.193E+04   0.673E+00 -.109E+01 0.202E+01   -.159E+00 0.486E+00 -.707E-01
   -.475E+02 -.513E+02 0.780E+03   0.482E+02 0.521E+02 -.780E+03   -.554E-01 0.162E-01 -.290E+00   -.591E+00 -.558E+00 -.629E+00
   -.133E+03 -.204E+02 -.609E+03   0.135E+03 0.204E+02 0.610E+03   -.637E+00 0.105E+00 0.428E+00   -.681E+00 -.108E+00 -.103E+01
   0.706E+02 -.404E+02 0.832E+03   -.713E+02 0.412E+02 -.831E+03   0.219E+00 0.167E+00 -.241E+00   0.329E+00 -.838E+00 -.632E+00
   0.696E+02 -.390E+02 -.529E+03   -.703E+02 0.397E+02 0.529E+03   0.607E+00 0.183E+00 0.937E+00   0.106E+00 -.826E+00 -.920E+00
   0.268E+01 -.554E+01 0.225E+04   -.258E+01 0.531E+01 -.224E+04   -.368E-01 0.941E-01 -.279E+01   -.233E-01 0.663E-02 0.353E+00
   0.451E+01 0.527E+01 -.194E+04   -.455E+01 -.506E+01 0.194E+04   0.230E+00 -.707E-01 0.429E+01   -.160E+00 -.953E-01 -.332E+00
   0.430E+02 -.654E+01 0.226E+04   -.433E+02 0.616E+01 -.226E+04   0.149E+00 -.172E+00 -.255E+01   0.133E+00 0.292E+00 0.477E+00
   0.222E+02 -.667E+01 -.204E+04   -.222E+02 0.733E+01 0.203E+04   -.775E-01 -.340E+00 0.410E+01   0.143E+00 -.319E+00 -.593E+00
   -.110E+03 0.486E+02 0.784E+03   0.111E+03 -.484E+02 -.784E+03   -.213E+00 0.155E+00 -.239E+00   -.742E+00 -.449E+00 -.483E+00
   -.323E+01 0.389E+02 0.795E+03   0.349E+01 -.389E+02 -.795E+03   0.481E-01 0.149E+00 0.340E-01   -.289E+00 -.297E+00 -.100E+01
   0.560E+01 0.502E+02 -.539E+03   -.458E+01 -.497E+02 0.540E+03   -.115E+00 -.376E-01 -.745E+00   -.903E+00 -.436E+00 -.624E+00
   -.740E+02 0.219E+02 0.221E+04   0.748E+02 -.217E+02 -.221E+04   -.340E+00 0.167E+00 -.279E+01   -.332E+00 -.263E+00 0.465E+00
   -.127E+03 -.321E+01 -.198E+04   0.128E+03 0.374E+01 0.198E+04   -.781E+00 -.417E+00 0.115E+01   -.480E+00 -.830E-01 -.159E+00
   0.183E+02 0.519E+01 -.561E+03   -.190E+02 -.362E+01 0.561E+03   0.266E+00 -.733E+00 0.382E+00   0.345E+00 -.822E+00 -.649E+00
   0.697E+02 -.539E+02 -.615E+03   -.705E+02 0.546E+02 0.616E+03   -.221E+00 0.441E-02 -.742E+00   0.965E+00 -.732E+00 -.889E+00
   0.541E+02 -.208E+01 0.226E+04   -.546E+02 0.235E+01 -.226E+04   0.230E+00 0.179E+00 -.283E+01   0.366E+00 -.374E+00 0.207E+00
   -.870E+02 -.354E+02 -.199E+04   0.875E+02 0.359E+02 0.199E+04   -.913E+00 0.743E-01 0.199E+01   0.437E+00 -.501E+00 0.654E-01
   0.491E+02 -.318E+02 -.576E+03   -.496E+02 0.321E+02 0.576E+03   -.129E-01 -.356E+00 0.341E+00   0.491E+00 0.311E-01 -.667E+00
   -.428E+02 0.267E+02 -.557E+03   0.434E+02 -.272E+02 0.557E+03   0.665E-01 -.410E-01 0.813E+00   -.557E+00 0.517E+00 -.450E+00
   -.105E+02 0.369E+02 -.557E+03   0.116E+02 -.385E+02 0.557E+03   -.566E+00 0.554E+00 0.289E+00   -.617E+00 0.101E+01 -.369E+00
   -.385E+00 -.249E+01 -.588E+03   -.785E+00 0.155E+01 0.588E+03   0.569E+00 0.379E+00 0.355E+00   0.636E+00 0.589E+00 -.614E+00
   0.183E+01 0.482E+01 0.221E+04   -.215E+01 -.465E+01 -.221E+04   -.174E+00 0.172E-01 -.280E+01   0.219E+00 -.466E-01 -.218E+00
   0.199E+01 0.535E+01 -.188E+04   -.106E+01 -.530E+01 0.188E+04   -.830E+00 -.327E+00 -.115E+01   -.949E-01 0.285E+00 0.599E+00
   -.397E+02 -.646E+02 -.195E+04   0.398E+02 0.626E+02 0.198E+04   -.193E+00 0.203E+01 -.253E+02   0.115E+00 -.871E-01 0.106E+00
   0.449E+01 0.415E+02 -.200E+04   -.711E+01 -.417E+02 0.203E+04   0.260E+01 0.490E+00 -.278E+02   0.698E-02 -.357E+00 0.156E+00
   -.418E+02 -.832E+01 -.202E+04   0.402E+02 0.836E+01 0.205E+04   0.165E+01 0.330E-01 -.267E+02   -.915E-01 -.925E-01 -.221E+00
   0.308E+02 -.185E+02 -.204E+04   -.301E+02 0.178E+02 0.207E+04   -.558E+00 0.461E+00 -.282E+02   -.130E+00 0.232E+00 -.179E+00
   0.269E+02 0.255E+02 -.192E+04   -.546E+02 -.456E+02 0.193E+04   0.277E+02 0.201E+02 -.530E+01   -.298E-01 0.715E-01 0.466E+00
   -.570E+02 -.393E+02 -.339E+03   0.631E+02 0.435E+02 0.342E+03   -.611E+01 -.418E+01 -.346E+01   -.157E-02 0.486E-02 0.458E-01
 -----------------------------------------------------------------------------------------------
   -.263E+02 -.212E+02 0.141E+03   -.711E-13 -.334E-12 0.296E-11   0.262E+02 0.210E+02 -.122E+03   0.991E-01 0.182E+00 -.195E+02
 
 
 POSITION                                       TOTAL-FORCE (eV/Angst)
 -----------------------------------------------------------------------------------
     10.08740      0.00562      4.04934        -0.025721      0.036513     -0.253776
     -2.53339      8.73512      4.08190        -0.031168      0.007806     -0.071442
      5.03058      0.01686      4.07661         0.057695     -0.136252     -0.129950
      8.81557      2.19268      4.07950        -0.085025     -0.055146     -0.166163
      1.26036      2.17683      4.06343        -0.196803     -0.055265     -0.064686
      2.52334      1.43996      6.10543        -0.009339     -0.008913      0.024632
      6.28789      2.21111      4.10570         0.141122     -0.054033     -0.314011
      3.80181      0.73423      2.00037         0.110823      0.001128      0.464101
      3.77296      0.74908      8.12225         0.015201     -0.010420      0.006235
      7.55692      1.45470      6.15314         0.031266     -0.023505      0.011629
      6.31884      0.74108      2.03384         0.019715     -0.059469      0.438228
      6.29953      0.75885      8.15292         0.004151      0.006760     -0.009122
      7.57051      4.36576      4.10283         0.020386      0.105736     -0.434310
      5.03817      4.36229      4.08171        -0.046054     -0.005539     -0.190093
      3.77927      3.66238      6.08638         0.006969      0.037343     -0.013121
      2.55462      2.91604      2.00083         0.066724      0.124198      0.370764
      2.52014      2.88373      8.10114        -0.008880      0.021198      0.023575
      6.28216      3.64071      6.10900         0.013585      0.009720      0.025616
      7.58585      2.93043      2.03371         0.125642      0.019563      0.418793
      7.55236      2.90389      8.17257         0.011664     -0.002085     -0.004425
      6.29425      6.55133      4.09263         0.017597     -0.042523     -0.193200
     -2.52626      5.82341      6.09880         0.032396      0.000413      0.031919
      3.81389      6.57546      4.07284        -0.247878     -0.060255     -0.063815
      1.26871      5.10416      2.04534        -0.006313      0.093424      0.263278
      1.22348      5.08248      8.13882        -0.004784     -0.019208     -0.046658
      6.29450      5.11374      2.02823        -0.016748      0.092056      0.397809
      6.22814      5.12499      8.16362        -0.007673      0.002349      0.007782
     -2.53139      7.30304      2.00991         0.036281     -0.136089      0.317957
     -2.55941      7.31547      8.01641         0.015823      0.007307     -0.005318
      0.00464      7.28975      2.05722         0.039789      0.058391      0.291639
     -0.02781      7.27864      8.18349        -0.005053      0.006900     -0.037280
      5.08583      7.28318      2.02757        -0.170253      0.037591      0.343309
      5.03956      7.29682      8.08914        -0.009852      0.035464     -0.002027
      7.54405      0.03969      4.10439         0.140026     -0.098108     -0.293230
     -0.03879      1.40587      6.04549        -0.026493     -0.010778      0.035452
      3.74186      2.14689      4.07389        -0.092672      0.061698     -0.425353
      1.31001      0.72945      2.02674        -0.005773     -0.005753      0.255378
      1.33917      0.75024      8.16105         0.007892      0.011993     -0.033740
      5.08007      1.45779      6.06839         0.011529     -0.041920      0.006359
      8.82791      0.75063      2.00000        -0.031570     -0.098240      0.111701
      8.78672      0.76680      8.14953        -0.007483      0.031614     -0.048178
     -0.02406      4.34464      4.11684         0.054575      0.219966     -0.282970
     -1.33556      3.65372      6.10571         0.002423      0.009262      0.011731
      2.55702      4.37025      4.05869        -0.102836      0.125830     -0.238656
      1.29026      3.64501      6.06572        -0.002525      0.051436      0.042694
      0.02215      2.94990      2.02984         0.035883     -0.137298      0.023370
     -0.01496      2.89954      8.00639         0.021394      0.035741     -0.012343
      5.09719      2.93887      2.04043        -0.079973     -0.246314      0.026085
      5.03280      2.93653      8.05280         0.004366      0.011915      0.010718
     -1.32764      6.58396      4.11125         0.082195     -0.103575     -0.342583
      1.24700      6.55932      4.09363         0.026774     -0.105544     -0.397345
      0.11814      5.88363      6.13593         0.016645      0.005514      0.002273
     -1.29718      5.12819      2.06865         0.118207      0.091321      0.187505
     -1.25892      5.16190      8.17715         0.025766      0.031300     -0.037907
      2.50444      5.87926      6.11757        -0.033918      0.025140      0.053971
      5.03092      5.78441      6.12496        -0.032208      0.014317      0.007335
      3.79261      5.11061      2.02334         0.037277      0.070543     -0.036576
      3.77533      5.13403      8.26361         0.052218      0.004763     -0.026668
     -3.80351      8.01499      6.05238        -0.035524      0.001587      0.020221
     -1.24473      7.99611      6.11745         0.055303     -0.034918      0.014863
      1.29420      7.96190      6.13264        -0.005931     -0.045148      0.035584
      3.68429      7.96243      6.11035         0.030466      0.024436      0.018712
      2.54183      7.29082      2.05307        -0.260515      0.144944      0.012994
      2.51401      7.28760      8.29261         0.009338      0.001339     -0.010533
      0.00575      0.10821      9.26312         0.046633     -0.037886      0.023444
      2.50772      4.30274      9.29118        -0.003265     -0.021675     -0.040778
     -2.52029      4.40910      9.26961        -0.017185     -0.019743     -0.012116
      5.01623      0.03721      9.27025         0.011273     -0.004872     -0.058798
      2.70284      7.25391     10.07862         0.030846      0.016419     -0.031457
      3.43806      7.75866     10.47882         0.021558     -0.014466     -0.009025
 -----------------------------------------------------------------------------------
    total drift:                                0.004590      0.004024     -0.010694


--------------------------------------------------------------------------------------------------------



  FREE ENERGIE OF THE ION-ELECTRON SYSTEM (eV)
  ---------------------------------------------------
  free  energy   TOTEN  =      -470.32130597 eV

  energy  without entropy=     -470.32130597  energy(sigma->0) =     -470.32130597
 


--------------------------------------------------------------------------------------------------------


    POTLOK:  cpu time    0.4452: real time    0.4453


--------------------------------------------------------------------------------------------------------


 stress matrix after NEB project (eV)
    -37.39356     -1.22949      1.16325
     -1.22949    -40.77456      0.30785
      1.16325      0.30785    -14.09945
  FORCES: max atom, RMS     0.068522    0.031261
  FORCE total and by dimension    0.261551    0.058798
  Stress total and by dimension   57.145049   40.774561
     LOOP+:  cpu time 2003.3150: real time 2004.4256
    4ORBIT:  cpu time    0.0000: real time    0.0000
 


 total charge     
 
# of ion       s       p       d       tot
------------------------------------------
    1        0.506   0.504   8.326   9.335
    2        0.504   0.510   8.332   9.346
    3        0.507   0.509   8.323   9.339
    4        0.505   0.511   8.316   9.331
    5        0.509   0.518   8.318   9.345
    6        0.515   0.529   8.321   9.365
    7        0.501   0.502   8.323   9.325
    8        0.487   0.370   8.313   9.171
    9        0.511   0.527   8.326   9.365
   10        0.519   0.525   8.346   9.390
   11        0.495   0.376   8.311   9.182
   12        0.503   0.507   8.336   9.347
   13        0.502   0.501   8.311   9.315
   14        0.504   0.510   8.313   9.327
   15        0.517   0.528   8.320   9.364
   16        0.500   0.393   8.309   9.201
   17        0.509   0.526   8.335   9.370
   18        0.510   0.510   8.332   9.352
   19        0.492   0.381   8.317   9.190
   20        0.497   0.498   8.334   9.330
   21        0.495   0.495   8.312   9.302
   22        0.510   0.512   8.328   9.350
   23        0.511   0.518   8.327   9.355
   24        0.506   0.399   8.304   9.208
   25        0.503   0.507   8.335   9.345
   26        0.492   0.376   8.312   9.180
   27        0.491   0.489   8.329   9.309
   28        0.496   0.368   8.318   9.182
   29        0.494   0.393   8.361   9.248
   30        0.491   0.376   8.316   9.184
   31        0.502   0.505   8.330   9.337
   32        0.497   0.388   8.301   9.185
   33        0.489   0.481   8.345   9.316
   34        0.474   0.508   6.179   7.162
   35        0.475   0.512   6.201   7.188
   36        0.468   0.500   6.174   7.141
   37        0.463   0.387   6.113   6.964
   38        0.476   0.515   6.184   7.175
   39        0.476   0.510   6.191   7.177
   40        0.463   0.380   6.134   6.977
   41        0.472   0.511   6.223   7.207
   42        0.476   0.513   6.219   7.209
   43        0.477   0.508   6.199   7.185
   44        0.475   0.505   6.204   7.184
   45        0.485   0.514   6.209   7.208
   46        0.468   0.386   6.140   6.995
   47        0.467   0.402   6.215   7.084
   48        0.467   0.389   6.109   6.964
   49        0.458   0.394   6.158   7.010
   50        0.472   0.504   6.194   7.170
   51        0.483   0.521   6.211   7.215
   52        0.500   0.542   6.295   7.337
   53        0.465   0.387   6.128   6.981
   54        0.475   0.507   6.165   7.146
   55        0.500   0.553   6.257   7.310
   56        0.479   0.516   6.179   7.174
   57        0.470   0.390   6.141   7.001
   58        0.462   0.496   6.209   7.167
   59        0.477   0.511   6.191   7.179
   60        0.481   0.513   6.189   7.182
   61        0.500   0.550   6.250   7.299
   62        0.495   0.537   6.232   7.264
   63        0.470   0.389   6.143   7.002
   64        0.479   0.547   6.168   7.194
   65        1.579   3.374   0.000   4.952
   66        1.582   3.349   0.000   4.931
   67        1.580   3.356   0.000   4.936
   68        1.583   3.334   0.000   4.917
   69        1.571   3.481   0.000   5.052
   70        0.606   0.120   0.000   0.726
--------------------------------------------------
tot         39.823  47.449 466.483 553.755
 


 magnetization (x)
 
# of ion       s       p       d       tot
------------------------------------------
    1       -0.015  -0.041   0.640   0.584
    2       -0.020  -0.042   0.675   0.613
    3       -0.019  -0.037   0.653   0.597
    4       -0.023  -0.046   0.724   0.655
    5       -0.026  -0.054   0.696   0.616
    6       -0.019  -0.047   0.636   0.571
    7       -0.019  -0.038   0.682   0.625
    8       -0.019  -0.033   0.700   0.648
    9       -0.016  -0.023   0.533   0.494
   10       -0.010  -0.025   0.370   0.335
   11       -0.016  -0.031   0.683   0.636
   12       -0.013  -0.020   0.373   0.340
   13       -0.018  -0.040   0.734   0.676
   14       -0.022  -0.045   0.712   0.645
   15       -0.023  -0.052   0.684   0.609
   16       -0.029  -0.050   0.720   0.640
   17       -0.015  -0.025   0.497   0.457
   18       -0.015  -0.040   0.696   0.641
   19       -0.022  -0.035   0.661   0.605
   20       -0.013  -0.020   0.515   0.482
   21       -0.016  -0.031   0.712   0.665
   22       -0.018  -0.045   0.691   0.628
   23       -0.013  -0.036   0.451   0.402
   24       -0.027  -0.043   0.731   0.661
   25       -0.010  -0.014   0.348   0.324
   26       -0.020  -0.030   0.660   0.610
   27       -0.014  -0.026   0.524   0.484
   28       -0.016  -0.028   0.679   0.636
   29       -0.024  -0.018   0.747   0.705
   30       -0.018  -0.032   0.678   0.628
   31       -0.007  -0.008   0.359   0.344
   32       -0.019  -0.038   0.708   0.650
   33       -0.017  -0.030   0.316   0.270
   34        0.011  -0.010   2.537   2.537
   35       -0.003  -0.034   2.619   2.582
   36        0.003  -0.019   2.726   2.710
   37        0.010  -0.012   2.894   2.891
   38        0.009   0.003   2.679   2.692
   39        0.006  -0.016   2.647   2.637
   40        0.006  -0.015   2.831   2.822
   41        0.013   0.004   2.477   2.494
   42       -0.008  -0.037   2.448   2.403
   43       -0.000  -0.028   2.642   2.615
   44        0.001  -0.016   2.597   2.582
   45        0.005  -0.018   2.556   2.542
   46        0.008  -0.020   2.827   2.815
   47       -0.008  -0.010   2.811   2.793
   48        0.014  -0.011   2.909   2.913
   49        0.007   0.001   2.935   2.943
   50        0.001  -0.017   2.601   2.585
   51        0.008  -0.004   2.432   2.435
   52       -0.022  -0.040  -1.373  -1.435
   53        0.007  -0.010   2.837   2.835
   54        0.017   0.014   2.689   2.720
   55       -0.026  -0.040  -1.926  -1.993
   56        0.015  -0.002   2.577   2.590
   57        0.012  -0.008   2.819   2.823
   58        0.014   0.004   2.543   2.561
   59        0.004  -0.017   2.682   2.669
   60        0.011  -0.008   2.629   2.632
   61       -0.024  -0.030  -2.021  -2.076
   62       -0.029  -0.048  -2.117  -2.195
   63        0.009  -0.009   2.805   2.804
   64        0.014   0.031   2.601   2.646
   65        0.003   0.092   0.000   0.095
   66        0.003   0.080   0.000   0.083
   67        0.003   0.095   0.000   0.097
   68        0.002   0.072   0.000   0.074
   69        0.006   0.174   0.000   0.180
   70        0.007   0.003   0.000   0.010
--------------------------------------------------
tot         -0.485  -1.031  85.099  83.584
 
 BZINTS: Fermi energy: -0.012435;609.000000 electrons
         Band energy:***********;  BLOECHL correction: -0.009979

 total amount of memory used by VASP MPI-rank0   256123. kBytes
=======================================================================

   base      :      30000. kBytes
   nonlr-proj:      13914. kBytes
   fftplans  :       6403. kBytes
   grid      :      18928. kBytes
   one-center:         93. kBytes
   wavefun   :     186785. kBytes
 
  
  
 General timing and accounting informations for this job:
 ========================================================
  
                  Total CPU time used (sec):     2138.105
                            User time (sec):     2041.586
                          System time (sec):       96.519
                         Elapsed time (sec):     2141.140
  
                   Maximum memory used (kb):      507864.
                   Average memory used (kb):           0.
  
                          Minor page faults:     23303476
                          Major page faults:           27
                 Voluntary context switches:         3244
