       N       E                     dE             d eps       ncg     rms          rms(c)
DAV:   1     0.433178910844E+04    0.43318E+04   -0.22885E+05  8160   0.140E+03
DAV:   2    -0.671279321664E+02   -0.43989E+04   -0.40900E+04  8160   0.327E+02
DAV:   3    -0.439976973838E+03   -0.37285E+03   -0.31712E+03  8529   0.134E+02
DAV:   4    -0.455061842406E+03   -0.15085E+02   -0.14720E+02  8652   0.293E+01
DAV:   5    -0.455322137130E+03   -0.26029E+00   -0.26002E+00  9210   0.330E+00    0.344E-01
RMM:   6    -0.455427537922E+03   -0.10540E+00   -0.13983E-01  8429   0.933E-01    0.834E-01
RMM:   7    -0.455435402074E+03   -0.78642E-02   -0.30196E-02 11676   0.271E-01    0.119E+00
RMM:   8    -0.455432212691E+03    0.31894E-02   -0.41990E-03  8567   0.135E-01    0.803E-01
RMM:   9    -0.455429100794E+03    0.31119E-02   -0.22916E-03  8581   0.106E-01    0.196E-01
RMM:  10    -0.455429459613E+03   -0.35882E-03   -0.66057E-04  8591   0.550E-02    0.248E-01
RMM:  11    -0.455429220057E+03    0.23956E-03   -0.27243E-04  8585   0.377E-02    0.976E-02
RMM:  12    -0.455429253552E+03   -0.33494E-04   -0.81906E-05  9127   0.171E-02    0.917E-02
RMM:  13    -0.455429320443E+03   -0.66892E-04   -0.27756E-05  9089   0.101E-02    0.698E-02
RMM:  14    -0.455429339118E+03   -0.18675E-04   -0.87247E-06  8464   0.612E-03    0.631E-02
RMM:  15    -0.455429434626E+03   -0.95508E-04   -0.71212E-06  7583   0.576E-03    0.517E-02
RMM:  16    -0.455429460556E+03   -0.25930E-04   -0.33467E-06  6629   0.443E-03    0.437E-02
RMM:  17    -0.455429529916E+03   -0.69360E-04   -0.36346E-06  6664   0.420E-03    0.357E-02
RMM:  18    -0.455429554856E+03   -0.24940E-04   -0.21329E-06  5770   0.385E-03    0.283E-02
RMM:  19    -0.455429588425E+03   -0.33569E-04   -0.17919E-06  5816   0.279E-03    0.237E-02
RMM:  20    -0.455429605195E+03   -0.16769E-04   -0.14062E-06  5652   0.292E-03    0.178E-02
RMM:  21    -0.455429607031E+03   -0.18363E-05   -0.11900E-06  5546   0.210E-03    0.140E-02
RMM:  22    -0.455429600429E+03    0.66018E-05   -0.50535E-07  5057   0.177E-03    0.117E-02
RMM:  23    -0.455429587152E+03    0.13277E-04   -0.46421E-07  4976   0.142E-03    0.908E-03
RMM:  24    -0.455429581828E+03    0.53246E-05   -0.17989E-07  4953   0.110E-03    0.792E-03
RMM:  25    -0.455429575880E+03    0.59479E-05   -0.13242E-07  4765   0.889E-04    0.639E-03
RMM:  26    -0.455429574491E+03    0.13887E-05   -0.60313E-08  4777   0.623E-04    0.583E-03
RMM:  27    -0.455429574353E+03    0.13835E-06   -0.64184E-08  4590   0.637E-04
   1 F= -.46949864E+03 E0= -.46949864E+03  d E =0.000000E+00  mag=   137.1490
