 vasp.5.4.4.18Apr17-6-g9f103f2a35 (build Sep 06 2021 19:49:22) complex          
  
 executed on             LinuxIFC date 2022.01.05  11:22:27
 running on   72 total cores
 distrk:  each k-point on   72 cores,    1 groups
 distr:  one band on NCORES_PER_BAND=  24 cores,    3 groups


--------------------------------------------------------------------------------------------------------


 INCAR:
 POTCAR:    PAW_PBE Fe 06Sep2000                  
 POTCAR:    PAW_PBE Ni 02Aug2007                  

 ----------------------------------------------------------------------------- 
|                                                                             |
|           W    W    AA    RRRRR   N    N  II  N    N   GGGG   !!!           |
|           W    W   A  A   R    R  NN   N  II  NN   N  G    G  !!!           |
|           W    W  A    A  R    R  N N  N  II  N N  N  G       !!!           |
|           W WW W  AAAAAA  RRRRR   N  N N  II  N  N N  G  GGG   !            |
|           WW  WW  A    A  R   R   N   NN  II  N   NN  G    G                |
|           W    W  A    A  R    R  N    N  II  N    N   GGGG   !!!           |
|                                                                             |
|      For optimal performance we recommend to set                            |
|        NCORE= 4 - approx SQRT( number of cores)                             |
|      NCORE specifies how many cores store one orbital (NPAR=cpu/NCORE).     |
|      This setting can  greatly improve the performance of VASP for DFT.     |
|      The default,   NCORE=1            might be grossly inefficient         |
|      on modern multi-core architectures or massively parallel machines.     |
|      Do your own testing !!!!                                               |
|      Unfortunately you need to use the default for GW and RPA calculations. |
|      (for HF NCORE is supported but not extensively tested yet)             |
|                                                                             |
 ----------------------------------------------------------------------------- 

 POTCAR:    PAW_PBE Fe 06Sep2000                  
   VRHFIN =Fe:  d7 s1                                                           
   LEXCH  = PE                                                                  
   EATOM  =   594.3153 eV,   43.6809 Ry                                         
                                                                                
   TITEL  = PAW_PBE Fe 06Sep2000                                                
   LULTRA =        F    use ultrasoft PP ?                                      
   IUNSCR =        1    unscreen: 0-lin 1-nonlin 2-no                           
   RPACOR =    2.000    partial core radius                                     
   POMASS =   55.847; ZVAL   =    8.000    mass and valenz                      
   RCORE  =    2.300    outmost cutoff radius                                   
   RWIGS  =    2.460; RWIGS  =    1.302    wigner-seitz radius (au A)           
   ENMAX  =  267.882; ENMIN  =  200.911 eV                                      
   RCLOC  =    1.701    cutoff for local pot                                    
   LCOR   =        T    correct aug charges                                     
   LPAW   =        T    paw PP                                                  
   EAUG   =  511.368                                                            
   DEXC   =    0.000                                                            
   RMAX   =    2.356    core radius for proj-oper                               
   RAUG   =    1.300    factor for augmentation sphere                          
   RDEP   =    2.442    radius for radial grids                                 
   RDEPT  =    1.890    core radius for aug-charge                              
                                                                                
   Atomic configuration                                                         
    9 entries                                                                   
     n  l   j            E        occ.                                          
     1  0  0.50     -6993.8440   2.0000                                         
     2  0  0.50      -814.6047   2.0000                                         
     2  1  1.50      -693.3689   6.0000                                         
     3  0  0.50       -89.4732   2.0000                                         
     3  1  1.50       -55.6373   6.0000                                         
     3  2  2.50        -3.8151   7.0000                                         
     4  0  0.50        -4.2551   1.0000                                         
     4  1  1.50        -3.4015   0.0000                                         
     4  3  2.50        -1.3606   0.0000                                         
   Description                                                                  
     l       E           TYP  RCUT    TYP  RCUT                                 
     2     -3.8151135     23  2.300                                             
     2     -5.1756961     23  2.300                                             
     0     -4.2550963     23  2.300                                             
     0      7.2035603     23  2.300                                             
     1     -2.7211652     23  2.300                                             
     1     18.4316424     23  2.300                                             
  local pseudopotential read in
  partial core-charges read in
  partial kinetic energy density read in
  atomic valenz-charges read in
  non local Contribution for L=           2  read in
    real space projection operators read in
  non local Contribution for L=           2  read in
    real space projection operators read in
  non local Contribution for L=           0  read in
    real space projection operators read in
  non local Contribution for L=           0  read in
    real space projection operators read in
  non local Contribution for L=           1  read in
    real space projection operators read in
  non local Contribution for L=           1  read in
    real space projection operators read in
    PAW grid and wavefunctions read in
 
   number of l-projection  operators is LMAX  =           6
   number of lm-projection operators is LMMAX =          18
 
 POTCAR:    PAW_PBE Ni 02Aug2007                  
   VRHFIN =Ni:                                                                  
   LEXCH  = PE                                                                  
   EATOM  =  1077.6739 eV,   79.2068 Ry                                         
                                                                                
   TITEL  = PAW_PBE Ni 02Aug2007                                                
   LULTRA =        F    use ultrasoft PP ?                                      
   IUNSCR =        1    unscreen: 0-lin 1-nonlin 2-no                           
   RPACOR =    2.000    partial core radius                                     
   POMASS =   58.690; ZVAL   =   10.000    mass and valenz                      
   RCORE  =    2.300    outmost cutoff radius                                   
   RWIGS  =    2.430; RWIGS  =    1.286    wigner-seitz radius (au A)           
   ENMAX  =  269.532; ENMIN  =  202.149 eV                                      
   RCLOC  =    1.201    cutoff for local pot                                    
   LCOR   =        T    correct aug charges                                     
   LPAW   =        T    paw PP                                                  
   EAUG   =  544.565                                                            
   DEXC   =    0.000                                                            
   RMAX   =    2.357    core radius for proj-oper                               
   RAUG   =    1.300    factor for augmentation sphere                          
   RDEP   =    2.390    radius for radial grids                                 
   RDEPT  =    1.838    core radius for aug-charge                              
                                                                                
   Atomic configuration                                                         
    9 entries                                                                   
     n  l   j            E        occ.                                          
     1  0  0.50     -8206.4253   2.0000                                         
     2  0  0.50      -976.1748   2.0000                                         
     2  1  1.50      -839.0571   6.0000                                         
     3  0  0.50      -105.9991   2.0000                                         
     3  1  1.50       -66.4603   6.0000                                         
     3  2  2.50        -4.6458   9.0000                                         
     4  0  0.50        -4.4926   1.0000                                         
     4  1  1.50        -4.0817   0.0000                                         
     4  3  2.50        -1.3606   0.0000                                         
   Description                                                                  
     l       E           TYP  RCUT    TYP  RCUT                                 
     2     -4.6457903     23  2.300                                             
     2     -6.0063729     23  2.300                                             
     0     -4.4925590     23  2.300                                             
     0      5.0102601     23  2.300                                             
     1     -2.7211652     23  2.300                                             
     1     16.5183231     23  2.300                                             
  local pseudopotential read in
  partial core-charges read in
  partial kinetic energy density read in
  atomic valenz-charges read in
  non local Contribution for L=           2  read in
    real space projection operators read in
  non local Contribution for L=           2  read in
    real space projection operators read in
  non local Contribution for L=           0  read in
    real space projection operators read in
  non local Contribution for L=           0  read in
    real space projection operators read in
  non local Contribution for L=           1  read in
    real space projection operators read in
  non local Contribution for L=           1  read in
    real space projection operators read in
    PAW grid and wavefunctions read in
 
   number of l-projection  operators is LMAX  =           6
   number of lm-projection operators is LMMAX =          18
 
 Optimization of the real space projectors (new method)

 maximal supplied QI-value         = 16.25
 optimisation between [QCUT,QGAM] = [ 11.54, 23.24] = [ 37.28,151.24] Ry 
 Optimized for a Real-space Cutoff    1.53 Angstroem

   l    n(q)    QCUT    max X(q) W(low)/X(q) W(high)/X(q)  e(spline) 
   2     10    11.539    80.901    0.11E-03    0.14E-03    0.21E-06
   2     10    11.539    75.754    0.11E-03    0.14E-03    0.22E-06
   0     11    11.539    58.752    0.52E-04    0.18E-04    0.33E-06
   0     11    11.539    30.679    0.44E-04    0.16E-04    0.30E-06
   1     10    11.539    17.977    0.53E-04    0.29E-04    0.13E-06
   1     10    11.539    13.559    0.44E-04    0.25E-04    0.11E-06
 Optimization of the real space projectors (new method)

 maximal supplied QI-value         = 16.25
 optimisation between [QCUT,QGAM] = [ 11.54, 23.24] = [ 37.28,151.24] Ry 
 Optimized for a Real-space Cutoff    1.45 Angstroem

   l    n(q)    QCUT    max X(q) W(low)/X(q) W(high)/X(q)  e(spline) 
   2      9    11.539    60.317    0.19E-03    0.47E-04    0.16E-06
   2      9    11.539    55.921    0.19E-03    0.48E-04    0.16E-06
   0     10    11.539    51.690    0.80E-04    0.50E-04    0.24E-06
   0     10    11.539    30.015    0.73E-04    0.45E-04    0.22E-06
   1     10    11.539    18.849    0.87E-04    0.16E-03    0.71E-07
   1     10    11.539    14.624    0.73E-04    0.13E-03    0.64E-07
  PAW_PBE Fe 06Sep2000                  :
 energy of atom  1       EATOM= -594.3153
 kinetic energy error for atom=    0.0026 (will be added to EATOM!!)
  PAW_PBE Ni 02Aug2007                  :
 energy of atom  2       EATOM=-1077.6739
 kinetic energy error for atom=    0.0030 (will be added to EATOM!!)
 
 
 POSCAR: POSCAR                                  
  positions in direct lattice
  velocities in cartesian coordinates
 exchange correlation table for  LEXCH =        8
   RHO(1)=    0.500       N(1)  =     2000
   RHO(2)=  100.500       N(2)  =     4000
 


--------------------------------------------------------------------------------------------------------


 ion  position               nearest neighbor table
   1  0.002  0.999  0.097-   9 2.45  29 2.50  49 2.51  64 2.51  44 2.53   7 2.53  51 2.54  38 2.55
                             5 2.60
   2  0.001  0.999  0.391-  11 2.49  39 2.50   6 2.52  52 2.52  48 2.53   8 2.54  30 2.54  50 2.55
                            57 2.64
   3  0.499  0.996  0.096-   5 2.47  62 2.50  34 2.52  31 2.52  49 2.53  45 2.55  55 2.55  12 2.56
                            53 2.58
   4  0.502  0.004  0.390-  50 2.49  54 2.49  56 2.51  15 2.51  13 2.52  35 2.53   6 2.56  32 2.58
                            63 2.66
   5  0.743  0.996  0.094-   3 2.47  34 2.47  62 2.52  38 2.53  55 2.54  64 2.58  14 2.58  51 2.59
                             1 2.60
   6  0.753  1.000  0.386-  39 2.51  56 2.51   2 2.52  15 2.52  57 2.52  52 2.53  35 2.54  47 2.56
                             4 2.56
   7  0.249  0.253  0.097-  22 2.43   9 2.44  51 2.49  18 2.52  20 2.53   1 2.53  53 2.54  10 2.55
                            49 2.58
   8  0.255  0.247  0.390-  11 2.47  26 2.49  50 2.50  54 2.50  19 2.53  21 2.53   2 2.54  52 2.56
                            59 2.67
   9  0.089  0.161  0.191-  10 2.41   7 2.44   1 2.45  44 2.47  51 2.52  59 2.53  64 2.54  22 2.55
                            11 2.57  57 2.57  58 2.62  14 2.68
  10  0.330  0.166  0.195-   9 2.41  22 2.48  45 2.48  44 2.49  13 2.55   7 2.55  12 2.57  49 2.58
                            11 2.58  53 2.59  25 2.59  26 2.60
  11  0.162  0.086  0.295-  59 2.47   8 2.47  57 2.48   2 2.49  48 2.52  50 2.54  13 2.55  26 2.57
                            46 2.57   9 2.57  10 2.58  44 2.62
  12  0.583  0.166  0.194-  14 2.45  27 2.50  15 2.51  62 2.52  45 2.54  55 2.55   3 2.56  10 2.57
                            28 2.58  53 2.58  25 2.58  13 2.58
  13  0.413  0.084  0.294-  50 2.47  54 2.49   4 2.52  15 2.52  28 2.54  46 2.55  11 2.55  10 2.55
                            63 2.57  12 2.58  45 2.58  26 2.59
  14  0.827  0.167  0.193-  12 2.45  60 2.50  62 2.51  55 2.51  57 2.52  27 2.53  15 2.55  58 2.56
                            51 2.56   5 2.58  64 2.59   9 2.68
  15  0.661  0.080  0.292-  47 2.49  56 2.49  12 2.51   4 2.51   6 2.52  13 2.52  28 2.53  63 2.53
                            14 2.55  62 2.55  57 2.56  60 2.56
  16  0.003  0.511  0.095-  31 2.44  29 2.45  23 2.48  33 2.51  58 2.57  18 2.58  27 2.59  55 2.60
                            51 2.63
  17  0.000  0.495  0.387-  56 2.49  52 2.51  43 2.51  24 2.52  60 2.53  32 2.54  19 2.55  37 2.56
                            30 2.56
  18  0.256  0.506  0.097-  36 2.40  31 2.45  34 2.47  22 2.47  20 2.48   7 2.52  58 2.53  51 2.58
                            16 2.58
  19  0.253  0.495  0.385-  61 2.49  21 2.50  52 2.51   8 2.53  59 2.54  37 2.54  35 2.54  32 2.55
                            17 2.55
  20  0.500  0.503  0.098-  22 2.41  40 2.43  34 2.48  18 2.48  38 2.50  25 2.53   7 2.53  53 2.54
                            23 2.58
  21  0.502  0.501  0.393-  19 2.50  42 2.51  26 2.53  54 2.53   8 2.53  39 2.54  24 2.56  35 2.57
                            61 2.66
  22  0.339  0.416  0.189-  20 2.41   7 2.43  40 2.46  18 2.47  25 2.48  10 2.48  36 2.53   9 2.55
                            59 2.56  61 2.58  26 2.59  58 2.60
  23  0.757  0.508  0.096-  29 2.40  41 2.46  16 2.48  27 2.48  38 2.48  25 2.56  55 2.57  20 2.58
                            53 2.60
  24  0.754  0.498  0.394-  30 2.49  54 2.50  17 2.52  56 2.53  21 2.56  39 2.57  28 2.57  43 2.58
                            42 2.61
  25  0.586  0.422  0.194-  40 2.45  41 2.46  27 2.46  22 2.48  20 2.53  23 2.56  53 2.58  12 2.58
                            28 2.59  10 2.59  26 2.59  42 2.60
  26  0.415  0.341  0.294-  61 2.46  59 2.47   8 2.49  42 2.51  21 2.53  54 2.54  11 2.57  13 2.59
                            22 2.59  28 2.59  25 2.59  10 2.60
  27  0.827  0.417  0.192-  41 2.45  25 2.46  23 2.48  12 2.50  55 2.51  14 2.53  60 2.56  28 2.58
                            58 2.59  16 2.59  43 2.59  33 2.60
  28  0.667  0.333  0.294-  54 2.46  56 2.46  60 2.52  43 2.52  15 2.53  13 2.54  24 2.57  12 2.58
                            27 2.58  42 2.59  26 2.59  25 2.59
  29  0.992  0.747  0.096-  23 2.40  16 2.45  38 2.48  41 2.50   1 2.50  33 2.54  44 2.56  49 2.57
                            31 2.63
  30  0.999  0.746  0.393-  24 2.49  39 2.51   2 2.54  32 2.55  17 2.56  50 2.56  46 2.56  43 2.57
                            48 2.65
  31  0.251  0.746  0.097-  16 2.44  36 2.44  18 2.45  33 2.49  34 2.52   3 2.52  45 2.55  49 2.56
                            29 2.63
  32  0.251  0.746  0.388-  35 2.47  46 2.53  17 2.54  50 2.54  19 2.55  30 2.55  63 2.56   4 2.58
                            37 2.59
  33  0.086  0.671  0.192-  45 2.48  44 2.48  31 2.49  16 2.51  36 2.52  41 2.52  29 2.54  37 2.54
                            58 2.55  46 2.57  27 2.60  43 2.61
  34  0.502  0.749  0.098-  18 2.47   5 2.47  40 2.48  36 2.48  20 2.48  62 2.49  38 2.49  31 2.52
                             3 2.52
  35  0.498  0.752  0.384-  32 2.47  63 2.50  61 2.51  47 2.51   4 2.53   6 2.54  19 2.54  21 2.57
                            39 2.59
  36  0.330  0.661  0.190-  18 2.40  31 2.44  34 2.48  58 2.49  33 2.52  22 2.53  40 2.53  37 2.53
                            61 2.54  63 2.54  62 2.56  45 2.62
  37  0.165  0.577  0.288-  58 2.47  59 2.49  61 2.49  60 2.50  63 2.52  36 2.53  33 2.54  19 2.54
                            43 2.55  17 2.56  32 2.59  46 2.60
  38  0.748  0.749  0.094-  29 2.48  23 2.48  34 2.49  20 2.50   5 2.53  40 2.54  64 2.55   1 2.55
                            41 2.58
  39  0.753  0.752  0.394-   2 2.50   6 2.51  30 2.51  42 2.54  21 2.54  48 2.57  24 2.57  35 2.59
                            47 2.73
  40  0.580  0.661  0.192-  20 2.43  25 2.45  22 2.46  34 2.48  36 2.53  61 2.53  47 2.53  38 2.54
                            41 2.54  62 2.56  64 2.57  42 2.61
  41  0.832  0.662  0.193-  27 2.45  25 2.46  23 2.46  29 2.50  33 2.52  40 2.54  64 2.54  43 2.56
                            44 2.57  38 2.58  48 2.61  42 2.63
  42  0.665  0.588  0.296-  21 2.51  47 2.51  26 2.51  61 2.51  48 2.52  39 2.54  43 2.56  28 2.59
                            25 2.60  40 2.61  24 2.61  41 2.63
  43  0.916  0.583  0.293-  46 2.50  17 2.51  28 2.52  60 2.54  37 2.55  41 2.56  42 2.56  30 2.57
                            24 2.58  27 2.59  48 2.59  33 2.61
  44  0.086  0.916  0.194-  45 2.43   9 2.47  33 2.48  10 2.49   1 2.53  49 2.53  64 2.54  46 2.54
                            29 2.56  41 2.57  48 2.59  11 2.62
  45  0.327  0.919  0.193-  44 2.43  33 2.48  10 2.48  49 2.49  63 2.52  12 2.54  31 2.55   3 2.55
                            46 2.58  13 2.58  62 2.59  36 2.62
  46  0.162  0.832  0.293-  43 2.50  50 2.51  32 2.53  63 2.53  44 2.54  13 2.55  48 2.56  30 2.56
                            33 2.57  11 2.57  45 2.58  37 2.60
  47  0.662  0.834  0.287-  62 2.46  15 2.49  63 2.51  64 2.51  42 2.51  35 2.51  48 2.52  61 2.52
                            40 2.53  57 2.55   6 2.56  39 2.73
  48  0.913  0.838  0.292-  57 2.48  42 2.52  47 2.52  11 2.52  64 2.52   2 2.53  46 2.56  39 2.57
                            44 2.59  43 2.59  41 2.61  30 2.65
  49  0.249  0.998  0.096-  45 2.49   1 2.51  44 2.53   3 2.53  53 2.55  31 2.56  29 2.57  10 2.58
                             7 2.58
  50  0.253  0.998  0.389-  13 2.47   4 2.49   8 2.50  46 2.51  32 2.54  11 2.54   2 2.55  54 2.56
                            30 2.56
  51  0.001  0.250  0.097-   7 2.49  58 2.51   9 2.52   1 2.54  55 2.55  14 2.56  18 2.58   5 2.59
                            16 2.63
  52  0.004  0.249  0.381-  57 2.44  59 2.46  60 2.48  19 2.51  17 2.51   2 2.52   6 2.53  56 2.54
                             8 2.56
  53  0.499  0.252  0.095-  55 2.53   7 2.54  20 2.54  49 2.55   3 2.58  25 2.58  12 2.58  10 2.59
                            23 2.60
  54  0.505  0.252  0.388-  28 2.46   4 2.49  13 2.49   8 2.50  24 2.50  21 2.53  56 2.53  26 2.54
                            50 2.56
  55  0.749  0.251  0.096-  14 2.51  27 2.51  53 2.53   5 2.54  51 2.55   3 2.55  12 2.55  23 2.57
                            16 2.60
  56  0.754  0.249  0.386-  28 2.46  17 2.49  15 2.49  60 2.51   4 2.51   6 2.51  24 2.53  54 2.53
                            52 2.54
  57  0.916  0.085  0.289-  52 2.44  48 2.48  11 2.48  60 2.50  59 2.51   6 2.52  14 2.52  64 2.53
                            47 2.55  15 2.56   9 2.57   2 2.64
  58  0.083  0.417  0.192-  37 2.47  36 2.49  59 2.50  51 2.51  60 2.52  18 2.53  33 2.55  14 2.56
                            16 2.57  27 2.59  22 2.60   9 2.62
  59  0.167  0.331  0.287-  52 2.46  11 2.47  26 2.47  37 2.49  58 2.50  57 2.51  61 2.52   9 2.53
                            19 2.54  60 2.54  22 2.56   8 2.67
  60  0.915  0.332  0.289-  52 2.48  14 2.50  37 2.50  57 2.50  56 2.51  28 2.52  58 2.52  17 2.53
                            43 2.54  59 2.54  27 2.56  15 2.56
  61  0.414  0.583  0.289-  26 2.46  19 2.49  37 2.49  35 2.51  63 2.51  42 2.51  59 2.52  47 2.52
                            40 2.53  36 2.54  22 2.58  21 2.66
  62  0.582  0.915  0.192-  47 2.46  34 2.49   3 2.50  14 2.51  63 2.52   5 2.52  12 2.52  64 2.55
                            15 2.55  36 2.56  40 2.56  45 2.59
  63  0.411  0.829  0.288-  35 2.50  61 2.51  47 2.51  62 2.52  37 2.52  45 2.52  15 2.53  46 2.53
                            36 2.54  32 2.56  13 2.57   4 2.66
  64  0.834  0.915  0.192-   1 2.51  47 2.51  48 2.52  57 2.53   9 2.54  44 2.54  41 2.54  38 2.55
                            62 2.55  40 2.57   5 2.58  14 2.59
 

IMPORTANT INFORMATION: All symmetrisations will be switched off!
NOSYMM: (Re-)initialisation of all symmetry stuff for point group C_1.

 
 

Automatic generation of k-mesh.
 generate k-points for:    3    3    1
Space group operators:
 irot       det(A)        alpha          n_x          n_y          n_z        tau_x        tau_y        tau_z
    1     1.000000     0.000000     1.000000     0.000000     0.000000     0.000000     0.000000     0.000000
 
 Subroutine IBZKPT returns following result:
 ===========================================
 
 Found      5 irreducible k-points:
 
 Following reciprocal coordinates:
            Coordinates               Weight
  0.000000  0.000000  0.000000      1.000000
  0.333333  0.000000  0.000000      2.000000
  0.000000  0.333333  0.000000      2.000000
  0.333333  0.333333  0.000000      2.000000
 -0.333333  0.333333  0.000000      2.000000
 
 Following cartesian coordinates:
            Coordinates               Weight
  0.000000  0.000000  0.000000      1.000000
  0.032965  0.019033  0.000000      2.000000
  0.000000  0.038065  0.000000      2.000000
  0.032965  0.057098  0.000000      2.000000
 -0.032965  0.019033  0.000000      2.000000
 
 TETIRR: Found     24 inequivalent tetrahedra from       54


--------------------------------------------------------------------------------------------------------




 Dimension of arrays:
   k-points           NKPTS =      5   k-points in BZ     NKDIM =      5   number of bands    NBANDS=    408
   number of dos      NEDOS =    301   number of ions     NIONS =     64
   non local maximal  LDIM  =      6   non local SUM 2l+1 LMDIM =     18
   total plane-waves  NPLWV = ******
   max r-space proj   IRMAX =   8269   max aug-charges    IRDMAX=  19568
   dimension x,y,z NGX =    80 NGY =   80 NGZ =  160
   dimension x,y,z NGXF=   160 NGYF=  160 NGZF=  320
   support grid    NGXF=   160 NGYF=  160 NGZF=  320
   ions per type =              48  16
   NGX,Y,Z   is equivalent  to a cutoff of  13.15, 13.15, 12.51 a.u.
   NGXF,Y,Z  is equivalent  to a cutoff of  26.31, 26.31, 25.02 a.u.

 SYSTEM =  SQS-NiFe                                
 POSCAR =  POSCAR                                  

 Startparameter for this run:
   NWRITE =      2    write-flag & timer
   PREC   = accura    normal or accurate (medium, high low for compatibility)
   ISTART =      0    job   : 0-new  1-cont  2-samecut
   ICHARG =      1    charge: 1-file 2-atom 10-const
   ISPIN  =      2    spin polarized calculation?
   LNONCOLLINEAR =      F non collinear calculations
   LSORBIT =      F    spin-orbit coupling
   INIWAV =      1    electr: 0-lowe 1-rand  2-diag
   LASPH  =      F    aspherical Exc in radial PAW
   METAGGA=      F    non-selfconsistent MetaGGA calc.

 Electronic Relaxation 1
   ENCUT  =  520.0 eV  38.22 Ry    6.18 a.u.  18.80 18.80 39.54*2*pi/ulx,y,z
   ENINI  =  520.0     initial cutoff
   ENAUG  =  544.6 eV  augmentation charge cutoff
   NELM   =    200;   NELMIN=  2; NELMDL= -5     # of ELM steps 
   EDIFF  = 0.1E-05   stopping-criterion for ELM
   LREAL  =      T    real-space projection
   NLSPLINE    = F    spline interpolate recip. space projectors
   LCOMPAT=      F    compatible to vasp.4.4
   GGA_COMPAT  = T    GGA compatible to vasp.4.4-vasp.4.6
   LMAXPAW     = -100 max onsite density
   LMAXMIX     =    2 max onsite mixed and CHGCAR
   VOSKOWN=      0    Vosko Wilk Nusair interpolation
   ROPT   =   -0.00025  -0.00025
 Ionic relaxation
   EDIFFG = -.2E-01   stopping-criterion for IOM
   NSW    =      0    number of steps for IOM
   NBLOCK =      1;   KBLOCK =      1    inner block; outer block 
   IBRION =     -1    ionic relax: 0-MD 1-quasi-New 2-CG
   NFREE  =      0    steps in history (QN), initial steepest desc. (CG)
   ISIF   =      2    stress and relaxation
   IWAVPR =     10    prediction:  0-non 1-charg 2-wave 3-comb
   ISYM   =      0    0-nonsym 1-usesym 2-fastsym
   LCORR  =      T    Harris-Foulkes like correction to forces

   POTIM  = 0.5000    time-step for ionic-motion
   TEIN   =    0.0    initial temperature
   TEBEG  =    0.0;   TEEND  =   0.0 temperature during run
   SMASS  =  -3.00    Nose mass-parameter (am)
   estimated Nose-frequenzy (Omega)   =  0.10E-29 period in steps =****** mass=  -0.234E-26a.u.
   SCALEE = 1.0000    scale energy and forces
   NPACO  =    256;   APACO  = 16.0  distance and # of slots for P.C.
   PSTRESS=    0.0 pullay stress

  Mass of Ions in am
   POMASS =  55.85 58.69
  Ionic Valenz
   ZVAL   =   8.00 10.00
  Atomic Wigner-Seitz radii
   RWIGS  =  -1.00 -1.00
  virtual crystal weights 
   VCA    =   1.00  1.00
   NELECT =     544.0000    total number of electrons
   NUPDOWN=      -1.0000    fix difference up-down

 DOS related values:
   EMIN   =  10.00;   EMAX   =-10.00  energy-range for DOS
   EFERMI =   0.00
   ISMEAR =    -5;   SIGMA  =   0.20  broadening in eV -4-tet -1-fermi 0-gaus

 Electronic relaxation 2 (details)
   IALGO  =     68    algorithm
   LDIAG  =      T    sub-space diagonalisation (order eigenvalues)
   LSUBROT=      F    optimize rotation matrix (better conditioning)
   TURBO    =      0    0=normal 1=particle mesh
   IRESTART =      0    0=no restart 2=restart with 2 vectors
   NREBOOT  =      0    no. of reboots
   NMIN     =      0    reboot dimension
   EREF     =   0.00    reference energy to select bands
   IMIX   =      4    mixing-type and parameters
     AMIX     =   0.40;   BMIX     =  1.00
     AMIX_MAG =   1.60;   BMIX_MAG =  1.00
     AMIN     =   0.10
     WC   =   100.;   INIMIX=   1;  MIXPRE=   1;  MAXMIX= -45

 Intra band minimization:
   WEIMIN = 0.0000     energy-eigenvalue tresh-hold
   EBREAK =  0.61E-09  absolut break condition
   DEPER  =   0.30     relativ break condition  

   TIME   =   0.40     timestep for ELM

  volume/ion in A,a.u.               =      29.42       198.56
  Fermi-wavevector in a.u.,A,eV,Ry     =   1.082228  2.045114 15.935370  1.171217
  Thomas-Fermi vector in A             =   2.218264
 
 Write flags
   LWAVE        =      F    write WAVECAR
   LDOWNSAMPLE  =      F    k-point downsampling of WAVECAR
   LCHARG       =      F    write CHGCAR
   LVTOT        =      F    write LOCPOT, total local potential
   LVHAR        =      F    write LOCPOT, Hartree potential only
   LELF         =      F    write electronic localiz. function (ELF)
   LORBIT       =     11    0 simple, 1 ext, 2 COOP (PROOUT), +10 PAW based schemes


 Dipole corrections
   LMONO  =      F    monopole corrections only (constant potential shift)
   LDIPOL =      T    correct potential (dipole corrections)
   IDIPOL =      3    1-x, 2-y, 3-z, 4-all directions 
   EPSILON=  1.0000000 bulk dielectric constant

 Exchange correlation treatment:
   GGA     =    --    GGA type
   LEXCH   =     8    internal setting for exchange type
   VOSKOWN=      0    Vosko Wilk Nusair interpolation
   LHFCALC =     F    Hartree Fock is set to
   LHFONE  =     F    Hartree Fock one center treatment
   AEXX    =    0.0000 exact exchange contribution

 Linear response parameters
   LEPSILON=     F    determine dielectric tensor
   LRPA    =     F    only Hartree local field effects (RPA)
   LNABLA  =     F    use nabla operator in PAW spheres
   LVEL    =     F    velocity operator in full k-point grid
   LINTERFAST=   F  fast interpolation
   KINTER  =     0    interpolate to denser k-point grid
   CSHIFT  =0.1000    complex shift for real part using Kramers Kronig
   OMEGAMAX=  -1.0    maximum frequency
   DEG_THRESHOLD= 0.2000000E-02 threshold for treating states as degnerate
   RTIME   =   -0.100 relaxation time in fs
  (WPLASMAI=    0.000 imaginary part of plasma frequency in eV, 0.658/RTIME)
   DFIELD  = 0.0000000 0.0000000 0.0000000 field for delta impulse in time
 
 Orbital magnetization related:
   ORBITALMAG=     F  switch on orbital magnetization
   LCHIMAG   =     F  perturbation theory with respect to B field
   DQ        =  0.001000  dq finite difference perturbation B field
   LLRAUG    =     F  two centre corrections for induced B field



--------------------------------------------------------------------------------------------------------


 Static calculation
 charge density and potential will be updated during run
 spin polarized calculation
 RMM-DIIS sequential band-by-band and
  variant of blocked Davidson during initial phase
 perform sub-space diagonalisation
    before iterative eigenvector-optimisation
 modified Broyden-mixing scheme, WC =      100.0
 initial mixing is a Kerker type mixing with AMIX =  0.4000 and BMIX =      1.0000
 Hartree-type preconditioning will be used
 using additional bands          136
 real space projection scheme for non local part
 use partial core corrections
 calculate Harris-corrections to forces 
   (improved forces if not selfconsistent)
 use gradient corrections 
 use of overlap-Matrix (Vanderbilt PP)
 Fermi weights with tetrahedron method with Bloechl corrections


--------------------------------------------------------------------------------------------------------


  energy-cutoff  :      520.00
  volume of cell :     1883.07
      direct lattice vectors                 reciprocal lattice vectors
    10.111630000  0.000000000  0.000000000     0.098896024  0.057097646  0.000000000
    -5.055815000  8.756928450  0.000000000     0.000000000  0.114195292  0.000000000
     0.000000000  0.000000000 21.266428300     0.000000000  0.000000000  0.047022471

  length of vectors
    10.111630000 10.111629997 21.266428300     0.114195292  0.114195292  0.047022471


 
 k-points in units of 2pi/SCALE and weight: read from INCAR                         
   0.00000000  0.00000000  0.00000000       0.111
   0.03296534  0.01903255  0.00000000       0.222
   0.00000000  0.03806510  0.00000000       0.222
   0.03296534  0.05709765  0.00000000       0.222
  -0.03296534  0.01903255  0.00000000       0.222
 
 k-points in reciprocal lattice and weights: read from INCAR                         
   0.00000000  0.00000000  0.00000000       0.111
   0.33333333  0.00000000  0.00000000       0.222
   0.00000000  0.33333333  0.00000000       0.222
   0.33333333  0.33333333  0.00000000       0.222
  -0.33333333  0.33333333  0.00000000       0.222
 
 position of ions in fractional coordinates (direct lattice) 
   0.00194700  0.99920000  0.09682937
   0.00107326  0.99896689  0.39122409
   0.49880600  0.99647600  0.09614542
   0.50199854  0.00442059  0.38993484
   0.74316000  0.99645900  0.09443074
   0.75277095  0.99958869  0.38620520
   0.24913600  0.25322600  0.09681044
   0.25526753  0.24652320  0.39025038
   0.08873200  0.16149400  0.19059152
   0.32962600  0.16609800  0.19506268
   0.16234937  0.08604897  0.29495344
   0.58333000  0.16550300  0.19443696
   0.41342372  0.08410160  0.29368324
   0.82651500  0.16651000  0.19326268
   0.66079202  0.07994943  0.29155648
   0.00320800  0.51090900  0.09451343
   0.00045802  0.49450577  0.38717282
   0.25586900  0.50577700  0.09734648
   0.25277163  0.49525341  0.38520482
   0.49960200  0.50304900  0.09754098
   0.50187053  0.50086878  0.39264342
   0.33859900  0.41583700  0.18939337
   0.75679100  0.50804300  0.09630935
   0.75375402  0.49817260  0.39410240
   0.58633600  0.42229400  0.19423576
   0.41518607  0.34065103  0.29376141
   0.82677100  0.41676200  0.19199494
   0.66745403  0.33331620  0.29396130
   0.99180600  0.74702800  0.09571304
   0.99887881  0.74638264  0.39317768
   0.25104600  0.74563900  0.09703639
   0.25057053  0.74597437  0.38794468
   0.08604600  0.67086900  0.19220225
   0.50153700  0.74905700  0.09752875
   0.49825464  0.75244237  0.38394690
   0.33005900  0.66135600  0.19018621
   0.16516765  0.57677132  0.28797888
   0.74777500  0.74863100  0.09404494
   0.75328672  0.75234299  0.39360727
   0.58008200  0.66096300  0.19152733
   0.83213700  0.66199500  0.19303528
   0.66500274  0.58788240  0.29554969
   0.91605936  0.58289400  0.29283791
   0.08603600  0.91635500  0.19371195
   0.32743000  0.91932200  0.19293658
   0.16227157  0.83181414  0.29325135
   0.66203252  0.83420045  0.28693415
   0.91251303  0.83763061  0.29234221
   0.24916500  0.99813100  0.09559832
   0.25299521  0.99848081  0.38929704
   0.00129700  0.24974200  0.09658595
   0.00416083  0.24850076  0.38148500
   0.49933100  0.25162700  0.09537266
   0.50503780  0.25237461  0.38823976
   0.74944200  0.25071300  0.09573080
   0.75352333  0.24860411  0.38593886
   0.91629876  0.08454538  0.28856766
   0.08260800  0.41708000  0.19225321
   0.16656385  0.33139684  0.28689316
   0.91540093  0.33182419  0.28878065
   0.41420109  0.58278596  0.28909478
   0.58190700  0.91526900  0.19241277
   0.41123479  0.82940556  0.28759341
   0.83399900  0.91457100  0.19240403
 
 position of ions in cartesian coordinates  (Angst):
  -5.03208300  8.74992291  2.05921485
  -5.03973939  8.74788155  8.31993898
   0.00574341  8.72606903  2.04466968
   5.05367382  0.03871080  8.29252130
   2.47664659  8.72592017  2.00820456
   2.55800589  8.75332661  8.21320526
   1.23890724  2.21748196  2.05881228
   1.33479514  2.15878606  8.29923177
   0.08074137  1.41419140  4.05320089
   2.49329539  1.45450830  4.14828650
   1.20656915  0.75352463  6.27260622
   5.06166458  1.44929793  4.13497967
   3.75518552  0.73647173  6.24559347
   7.51557011  1.45811616  4.11000693
   6.27747493  0.70011143  6.20036494
  -2.55062328  4.47399356  2.00996308
  -2.49549842  4.33035167  8.23378312
   0.03013771  4.42905300  2.07021194
   0.05202363  4.33689867  8.19193064
   2.50846789  4.40516410  2.07434826
   2.54242920  4.38607208  8.35012303
   1.32139286  3.64145486  4.02772052
   5.08381916  4.44889620  2.04815589
   5.10301329  4.36246177  8.38115048
   3.79377235  3.69799834  4.13070086
   2.47593931  2.98305668  6.24725592
   6.25293088  3.64955501  4.08304663
   5.06386312  2.91882615  6.25150691
   6.25193994  6.54167075  2.03547450
   6.32672044  6.53601937  8.36148494
  -1.23132858  6.52950737  2.06361743
  -1.23783190  6.53244416  8.25019777
  -2.52172424  5.87475183  4.08745537
   1.28426296  6.55943855  2.07408817
   1.23395714  6.58908398  8.16517926
  -0.00625910  5.79144717  4.04458140
  -1.24593492  5.05074518  6.12428228
   3.77628428  6.55570810  1.99999997
   3.81324960  6.58821377  8.37062071
   2.52386790  5.78800570  4.07310223
   5.06733720  5.79704285  4.10517094
   3.75203699  5.14804411  6.28528637
   6.31584907  5.10436103  6.22761640
  -3.76295716  8.02445517  4.11956130
  -1.33707095  8.05043698  4.10307195
  -2.56466827  7.28413688  6.23640886
   2.47666468  7.30503368  6.10206461
   4.99208875  7.33507129  6.21707461
  -2.52690139  8.74056175  2.03303482
  -2.48994027  8.74362498  8.27895750
  -1.24953457  2.18697282  2.05403818
  -1.21430112  2.17610339  8.11282347
   3.77687076  2.20347964  2.02823584
   3.83079607  2.21002640  8.25647299
   6.31052166  2.19547580  2.03585219
   6.36245273  2.17700839  8.20754099
   8.83782821  0.74035788  6.13680350
  -1.27337779  3.65233972  4.08853911
   0.00875091  2.90201840  6.10119279
   7.57855380  2.90576070  6.14133300
   1.24179012  5.10341496  6.14801347
   1.25659754  8.01494515  4.09193238
  -0.03506707  7.26304516  6.11608465
   3.80918753  8.00883281  4.09174651
 


--------------------------------------------------------------------------------------------------------


 k-point  1 :   0.0000 0.0000 0.0000  plane waves:   50761
 k-point  2 :   0.3333 0.0000 0.0000  plane waves:   50732
 k-point  3 :   0.0000 0.3333 0.0000  plane waves:   50732
 k-point  4 :   0.3333 0.3333 0.0000  plane waves:   50727
 k-point  5 :  -0.3333 0.3333 0.0000  plane waves:   50732

 maximum and minimum number of plane-waves per node :      2133     2094

 maximum number of plane-waves:     50761
 maximum index in each direction: 
   IXMAX=   19   IYMAX=   18   IZMAX=   39
   IXMIN=  -19   IYMIN=  -19   IZMIN=  -39


 real space projection operators:
  total allocation   :      68868.84 KBytes
  max/ min on nodes  :       3446.44       2582.58


 parallel 3D FFT for wavefunctions:
    minimum data exchange during FFTs selected (reduces bandwidth)
 parallel 3D FFT for charge:
    minimum data exchange during FFTs selected (reduces bandwidth)


 total amount of memory used by VASP MPI-rank0   113629. kBytes
=======================================================================

   base      :      30000. kBytes
   nonlr-proj:      13220. kBytes
   fftplans  :       6403. kBytes
   grid      :      16455. kBytes
   one-center:         93. kBytes
   wavefun   :      47458. kBytes
 
     INWAV:  cpu time    0.0010: real time    0.0001
 Broyden mixing: mesh for mixing (old mesh)
   NGX = 37   NGY = 37   NGZ = 79
  (NGX  =160   NGY  =160   NGZ  =320)
  gives a total of 108151 points

 initial charge density was supplied:
 number of electron     544.0000107 magnetization     137.1455093
 keeping initial charge density in first step


--------------------------------------------------------------------------------------------------------


 Maximum index for non-local projection operator          759
 Maximum index for augmentation-charges         1104 (set IRDMAX)


--------------------------------------------------------------------------------------------------------


 First call to EWALD:  gamma=   0.144
 Maximum number of real-space cells 4x 4x 2
 Maximum number of reciprocal cells 2x 2x 4

    FEWALD:  cpu time    0.0030: real time    0.0041


--------------------------------------- Iteration      1(   1)  ---------------------------------------


    POTLOK:  cpu time    0.2440: real time    0.2519
    SETDIJ:  cpu time    0.0170: real time    0.0194
     EDDAV:  cpu time   24.6113: real time   24.7459
 BZINTS: Fermi energy: 10.463838;544.000000 electrons
         Band energy:3426.894311;  BLOECHL correction: -0.015051
       DOS:  cpu time    0.0420: real time    0.0426
    --------------------------------------------
      LOOP:  cpu time   24.9142: real time   25.0597

 eigenvalue-minimisations  :  8160
 total energy-change (2. order) : 0.4331789E+04  (-0.2288530E+05)
 number of electron     544.0000107 magnetization     137.1455093
 augmentation part      544.0000107 magnetization     137.1455093

 DIPCOR: dipole corrections for dipol
 direction  3 min pos   233,
 dipolmoment           0.000000      0.000000      0.024750 electrons x Angstroem
 Tr[quadrupol]     -9553.959648

 energy correction for charged system         0.000000 eV
 dipol+quadrupol energy correction           -0.000029 eV
 added-field ion interaction         -0.478239 eV  (added to PSCEN)


 Free energy of the ion-electron system (eV)
  ---------------------------------------------------
  alpha Z        PSCENC =      1433.22617675
  Ewald energy   TEWEN  =    164419.14697277
  -Hartree energ DENC   =   -209884.69156586
  -exchange      EXHF   =         0.00000000
  -V(xc)+E(xc)   XCENC  =       701.11003448
  PAW double counting   =     51494.26876637   -53027.90897103
  entropy T*S    EENTRO =         0.00000000
  eigenvalues    EBANDS =      3426.89431075
  atomic energy  EATOM  =     45769.74338420
  Solvation  Ediel_sol  =         0.00000000
  ---------------------------------------------------
  free energy    TOTEN  =      4331.78910844 eV

  energy without entropy =     4331.78910844  energy(sigma->0) =     4331.78910844


--------------------------------------------------------------------------------------------------------




--------------------------------------- Iteration      1(   2)  ---------------------------------------


     EDDAV:  cpu time   24.7952: real time   24.8504
 BZINTS: Fermi energy:  0.827747;544.000000 electrons
         Band energy:-972.022730;  BLOECHL correction: -0.007308
       DOS:  cpu time    0.0370: real time    0.0376
    --------------------------------------------
      LOOP:  cpu time   24.8322: real time   24.8880

 eigenvalue-minimisations  :  8160
 total energy-change (2. order) :-0.4398917E+04  (-0.4090007E+04)
 number of electron     544.0000107 magnetization     137.1455093
 augmentation part      544.0000107 magnetization     137.1455093

 DIPCOR: dipole corrections for dipol
 direction  3 min pos   233,
 dipolmoment           0.000000      0.000000      0.024750 electrons x Angstroem
 Tr[quadrupol]     -9553.959648

 energy correction for charged system         0.000000 eV
 dipol+quadrupol energy correction           -0.000029 eV
 added-field ion interaction         -0.478239 eV  (added to PSCEN)


 Free energy of the ion-electron system (eV)
  ---------------------------------------------------
  alpha Z        PSCENC =      1433.22617675
  Ewald energy   TEWEN  =    164419.14697277
  -Hartree energ DENC   =   -209884.69156586
  -exchange      EXHF   =         0.00000000
  -V(xc)+E(xc)   XCENC  =       701.11003448
  PAW double counting   =     51494.26876637   -53027.90897103
  entropy T*S    EENTRO =         0.00000000
  eigenvalues    EBANDS =      -972.02272985
  atomic energy  EATOM  =     45769.74338420
  Solvation  Ediel_sol  =         0.00000000
  ---------------------------------------------------
  free energy    TOTEN  =       -67.12793217 eV

  energy without entropy =      -67.12793217  energy(sigma->0) =      -67.12793217


--------------------------------------------------------------------------------------------------------




--------------------------------------- Iteration      1(   3)  ---------------------------------------


     EDDAV:  cpu time   25.6651: real time   25.7019
 BZINTS: Fermi energy: -0.208390;544.000000 electrons
         Band energy:***********;  BLOECHL correction: -0.022587
       DOS:  cpu time    0.0420: real time    0.0419
    --------------------------------------------
      LOOP:  cpu time   25.7071: real time   25.7438

 eigenvalue-minimisations  :  8529
 total energy-change (2. order) :-0.3728490E+03  (-0.3171198E+03)
 number of electron     544.0000107 magnetization     137.1455093
 augmentation part      544.0000107 magnetization     137.1455093

 DIPCOR: dipole corrections for dipol
 direction  3 min pos   233,
 dipolmoment           0.000000      0.000000      0.024750 electrons x Angstroem
 Tr[quadrupol]     -9553.959648

 energy correction for charged system         0.000000 eV
 dipol+quadrupol energy correction           -0.000029 eV
 added-field ion interaction         -0.478239 eV  (added to PSCEN)


 Free energy of the ion-electron system (eV)
  ---------------------------------------------------
  alpha Z        PSCENC =      1433.22617675
  Ewald energy   TEWEN  =    164419.14697277
  -Hartree energ DENC   =   -209884.69156586
  -exchange      EXHF   =         0.00000000
  -V(xc)+E(xc)   XCENC  =       701.11003448
  PAW double counting   =     51494.26876637   -53027.90897103
  entropy T*S    EENTRO =         0.00000000
  eigenvalues    EBANDS =     -1344.87177152
  atomic energy  EATOM  =     45769.74338420
  Solvation  Ediel_sol  =         0.00000000
  ---------------------------------------------------
  free energy    TOTEN  =      -439.97697384 eV

  energy without entropy =     -439.97697384  energy(sigma->0) =     -439.97697384


--------------------------------------------------------------------------------------------------------




--------------------------------------- Iteration      1(   4)  ---------------------------------------


     EDDAV:  cpu time   26.6739: real time   26.7754
 BZINTS: Fermi energy: -0.245700;544.000000 electrons
         Band energy:***********;  BLOECHL correction: -0.023790
       DOS:  cpu time    0.0430: real time    0.0435
    --------------------------------------------
      LOOP:  cpu time   26.7169: real time   26.8190

 eigenvalue-minimisations  :  8652
 total energy-change (2. order) :-0.1508487E+02  (-0.1471986E+02)
 number of electron     544.0000107 magnetization     137.1455093
 augmentation part      544.0000107 magnetization     137.1455093

 DIPCOR: dipole corrections for dipol
 direction  3 min pos   233,
 dipolmoment           0.000000      0.000000      0.024750 electrons x Angstroem
 Tr[quadrupol]     -9553.959648

 energy correction for charged system         0.000000 eV
 dipol+quadrupol energy correction           -0.000029 eV
 added-field ion interaction         -0.478239 eV  (added to PSCEN)


 Free energy of the ion-electron system (eV)
  ---------------------------------------------------
  alpha Z        PSCENC =      1433.22617675
  Ewald energy   TEWEN  =    164419.14697277
  -Hartree energ DENC   =   -209884.69156586
  -exchange      EXHF   =         0.00000000
  -V(xc)+E(xc)   XCENC  =       701.11003448
  PAW double counting   =     51494.26876637   -53027.90897103
  entropy T*S    EENTRO =         0.00000000
  eigenvalues    EBANDS =     -1359.95664009
  atomic energy  EATOM  =     45769.74338420
  Solvation  Ediel_sol  =         0.00000000
  ---------------------------------------------------
  free energy    TOTEN  =      -455.06184241 eV

  energy without entropy =     -455.06184241  energy(sigma->0) =     -455.06184241


--------------------------------------------------------------------------------------------------------




--------------------------------------- Iteration      1(   5)  ---------------------------------------


     EDDAV:  cpu time   27.8078: real time   27.9082
 BZINTS: Fermi energy: -0.246582;544.000000 electrons
         Band energy:***********;  BLOECHL correction: -0.023747
       DOS:  cpu time    0.0450: real time    0.0445
    CHARGE:  cpu time    0.6969: real time    0.6967
    MIXING:  cpu time    0.0040: real time    0.0048
    --------------------------------------------
      LOOP:  cpu time   28.5537: real time   28.6543

 eigenvalue-minimisations  :  9210
 total energy-change (2. order) :-0.2602947E+00  (-0.2600192E+00)
 number of electron     544.0000106 magnetization     137.1543610
 augmentation part      298.9741661 magnetization     110.8323765

 DIPCOR: dipole corrections for dipol
 direction  3 min pos   233,
 dipolmoment           0.000000      0.000000      0.024750 electrons x Angstroem
 Tr[quadrupol]     -9553.959648

 energy correction for charged system         0.000000 eV
 dipol+quadrupol energy correction           -0.000029 eV
 added-field ion interaction         -0.478239 eV  (added to PSCEN)


 Broyden mixing:
  rms(total) = 0.34431E-01    rms(broyden)= 0.34352E-01
  rms(prec ) = 0.34908E-01
  weight for this iteration     100.00

 Free energy of the ion-electron system (eV)
  ---------------------------------------------------
  alpha Z        PSCENC =      1433.22617675
  Ewald energy   TEWEN  =    164419.14697277
  -Hartree energ DENC   =   -209884.69156586
  -exchange      EXHF   =         0.00000000
  -V(xc)+E(xc)   XCENC  =       701.11003448
  PAW double counting   =     51494.26876637   -53027.90897103
  entropy T*S    EENTRO =         0.00000000
  eigenvalues    EBANDS =     -1360.21693482
  atomic energy  EATOM  =     45769.74338420
  Solvation  Ediel_sol  =         0.00000000
  ---------------------------------------------------
  free energy    TOTEN  =      -455.32213713 eV

  energy without entropy =     -455.32213713  energy(sigma->0) =     -455.32213713


--------------------------------------------------------------------------------------------------------




--------------------------------------- Iteration      1(   6)  ---------------------------------------


    POTLOK:  cpu time    0.2450: real time    0.2456
    SETDIJ:  cpu time    0.0190: real time    0.0180
    EDDIAG:  cpu time    3.6484: real time    3.6520
  RMM-DIIS:  cpu time   15.6166: real time   15.6435
    ORTHCH:  cpu time    0.6329: real time    0.6339
 BZINTS: Fermi energy: -0.243215;544.000000 electrons
         Band energy:***********;  BLOECHL correction: -0.023931
       DOS:  cpu time    0.0430: real time    0.0424
    CHARGE:  cpu time    0.7599: real time    0.7604
    MIXING:  cpu time    0.0060: real time    0.0051
    --------------------------------------------
      LOOP:  cpu time   20.9708: real time   21.0008

 eigenvalue-minimisations  :  8429
 total energy-change (2. order) :-0.1054008E+00  (-0.1398264E-01)
 number of electron     544.0000107 magnetization     137.1542260
 augmentation part      298.8778022 magnetization     110.8437951

 DIPCOR: dipole corrections for dipol
 direction  3 min pos   239,
 dipolmoment           0.000000      0.000000      0.018189 electrons x Angstroem
 Tr[quadrupol]     -9554.008621

 energy correction for charged system         0.000000 eV
 dipol+quadrupol energy correction           -0.000016 eV
 added-field ion interaction          0.027698 eV  (added to PSCEN)


 Broyden mixing:
  rms(total) = 0.83437E-01    rms(broyden)= 0.83420E-01
  rms(prec ) = 0.10283E+00
  weight for this iteration     100.00

 eigenvalues of (default mixing * dielectric matrix)
  average eigenvalue GAMMA=   0.2878
  0.2878

 Free energy of the ion-electron system (eV)
  ---------------------------------------------------
  alpha Z        PSCENC =      1433.73212678
  Ewald energy   TEWEN  =    164419.14697277
  -Hartree energ DENC   =   -209886.39159597
  -exchange      EXHF   =         0.00000000
  -V(xc)+E(xc)   XCENC  =       701.27304504
  PAW double counting   =     51527.64170872   -53061.40434486
  entropy T*S    EENTRO =         0.00000000
  eigenvalues    EBANDS =     -1359.16883460
  atomic energy  EATOM  =     45769.74338420
  Solvation  Ediel_sol  =         0.00000000
  ---------------------------------------------------
  free energy    TOTEN  =      -455.42753792 eV

  energy without entropy =     -455.42753792  energy(sigma->0) =     -455.42753792


--------------------------------------------------------------------------------------------------------




--------------------------------------- Iteration      1(   7)  ---------------------------------------


    POTLOK:  cpu time    0.2440: real time    0.2444
    SETDIJ:  cpu time    0.0180: real time    0.0178
    EDDIAG:  cpu time    3.6474: real time    3.6516
  RMM-DIIS:  cpu time   21.2518: real time   21.2855
    ORTHCH:  cpu time    0.6159: real time    0.6190
 BZINTS: Fermi energy: -0.248666;544.000000 electrons
         Band energy:***********;  BLOECHL correction: -0.023223
       DOS:  cpu time    0.0410: real time    0.0402
    CHARGE:  cpu time    0.7369: real time    0.7388
    MIXING:  cpu time    0.0050: real time    0.0045
    --------------------------------------------
      LOOP:  cpu time   26.5600: real time   26.6017

 eigenvalue-minimisations  : 11676
 total energy-change (2. order) :-0.7864152E-02  (-0.3019618E-02)
 number of electron     544.0000107 magnetization     137.1538628
 augmentation part      298.8915181 magnetization     110.8456029

 DIPCOR: dipole corrections for dipol
 direction  3 min pos   239,
 dipolmoment           0.000000      0.000000      0.041546 electrons x Angstroem
 Tr[quadrupol]     -9553.957385

 energy correction for charged system         0.000000 eV
 dipol+quadrupol energy correction           -0.000083 eV
 added-field ion interaction          0.063264 eV  (added to PSCEN)


 Broyden mixing:
  rms(total) = 0.11927E+00    rms(broyden)= 0.11926E+00
  rms(prec ) = 0.17422E+00
  weight for this iteration     100.00

 eigenvalues of (default mixing * dielectric matrix)
  average eigenvalue GAMMA=   0.2231
  0.3714  0.0748

 Free energy of the ion-electron system (eV)
  ---------------------------------------------------
  alpha Z        PSCENC =      1433.76762634
  Ewald energy   TEWEN  =    164419.14697277
  -Hartree energ DENC   =   -209884.81728678
  -exchange      EXHF   =         0.00000000
  -V(xc)+E(xc)   XCENC  =       701.25719333
  PAW double counting   =     51529.50376039   -53063.22663138
  entropy T*S    EENTRO =         0.00000000
  eigenvalues    EBANDS =     -1360.81042096
  atomic energy  EATOM  =     45769.74338420
  Solvation  Ediel_sol  =         0.00000000
  ---------------------------------------------------
  free energy    TOTEN  =      -455.43540207 eV

  energy without entropy =     -455.43540207  energy(sigma->0) =     -455.43540207


--------------------------------------------------------------------------------------------------------




--------------------------------------- Iteration      1(   8)  ---------------------------------------


    POTLOK:  cpu time    0.2420: real time    0.2433
    SETDIJ:  cpu time    0.0180: real time    0.0177
    EDDIAG:  cpu time    3.6964: real time    3.7001
  RMM-DIIS:  cpu time   15.7766: real time   15.8317
    ORTHCH:  cpu time    0.6229: real time    0.6297
 BZINTS: Fermi energy: -0.247455;544.000000 electrons
         Band energy:***********;  BLOECHL correction: -0.023820
       DOS:  cpu time    0.0400: real time    0.0409
    CHARGE:  cpu time    0.7139: real time    0.7198
    MIXING:  cpu time    0.0050: real time    0.0048
    --------------------------------------------
      LOOP:  cpu time   21.1148: real time   21.1879

 eigenvalue-minimisations  :  8567
 total energy-change (2. order) : 0.3189383E-02  (-0.4199021E-03)
 number of electron     544.0000107 magnetization     137.1549587
 augmentation part      298.8805417 magnetization     110.8206656

 DIPCOR: dipole corrections for dipol
 direction  3 min pos   237,
 dipolmoment           0.000000      0.000000      0.014750 electrons x Angstroem
 Tr[quadrupol]     -9553.945391

 energy correction for charged system         0.000000 eV
 dipol+quadrupol energy correction           -0.000010 eV
 added-field ion interaction         -0.080030 eV  (added to PSCEN)


 Broyden mixing:
  rms(total) = 0.80259E-01    rms(broyden)= 0.80243E-01
  rms(prec ) = 0.10866E+00
  weight for this iteration     100.00

 eigenvalues of (default mixing * dielectric matrix)
  average eigenvalue GAMMA=   0.2023
  0.3873  0.1680  0.0517

 Free energy of the ion-electron system (eV)
  ---------------------------------------------------
  alpha Z        PSCENC =      1433.62440471
  Ewald energy   TEWEN  =    164419.14697277
  -Hartree energ DENC   =   -209884.48077692
  -exchange      EXHF   =         0.00000000
  -V(xc)+E(xc)   XCENC  =       701.23110127
  PAW double counting   =     51529.77709337   -53063.45877494
  entropy T*S    EENTRO =         0.00000000
  eigenvalues    EBANDS =     -1361.01561716
  atomic energy  EATOM  =     45769.74338420
  Solvation  Ediel_sol  =         0.00000000
  ---------------------------------------------------
  free energy    TOTEN  =      -455.43221269 eV

  energy without entropy =     -455.43221269  energy(sigma->0) =     -455.43221269


--------------------------------------------------------------------------------------------------------




--------------------------------------- Iteration      1(   9)  ---------------------------------------


    POTLOK:  cpu time    0.2420: real time    0.2451
    SETDIJ:  cpu time    0.0170: real time    0.0177
    EDDIAG:  cpu time    3.6474: real time    3.6908
  RMM-DIIS:  cpu time   15.6876: real time   15.9813
    ORTHCH:  cpu time    0.6449: real time    0.6522
 BZINTS: Fermi energy: -0.246737;544.000000 electrons
         Band energy:***********;  BLOECHL correction: -0.023722
       DOS:  cpu time    0.0430: real time    0.0429
    CHARGE:  cpu time    0.7629: real time    0.7740
    MIXING:  cpu time    0.0050: real time    0.0055
    --------------------------------------------
      LOOP:  cpu time   21.0498: real time   21.4096

 eigenvalue-minimisations  :  8581
 total energy-change (2. order) : 0.3111897E-02  (-0.2291564E-03)
 number of electron     544.0000107 magnetization     137.1549785
 augmentation part      298.8915431 magnetization     110.8404479

 DIPCOR: dipole corrections for dipol
 direction  3 min pos   238,
 dipolmoment           0.000000      0.000000      0.024769 electrons x Angstroem
 Tr[quadrupol]     -9553.977606

 energy correction for charged system         0.000000 eV
 dipol+quadrupol energy correction           -0.000029 eV
 added-field ion interaction         -0.048336 eV  (added to PSCEN)


 Broyden mixing:
  rms(total) = 0.19602E-01    rms(broyden)= 0.19594E-01
  rms(prec ) = 0.22077E-01
  weight for this iteration     100.00

 eigenvalues of (default mixing * dielectric matrix)
  average eigenvalue GAMMA=   0.2596
  0.4283  0.4283  0.1303  0.0515

 Free energy of the ion-electron system (eV)
  ---------------------------------------------------
  alpha Z        PSCENC =      1433.65607930
  Ewald energy   TEWEN  =    164419.14697277
  -Hartree energ DENC   =   -209885.01245331
  -exchange      EXHF   =         0.00000000
  -V(xc)+E(xc)   XCENC  =       701.19485469
  PAW double counting   =     51528.20088545   -53061.78369542
  entropy T*S    EENTRO =         0.00000000
  eigenvalues    EBANDS =     -1360.57512848
  atomic energy  EATOM  =     45769.74338420
  Solvation  Ediel_sol  =         0.00000000
  ---------------------------------------------------
  free energy    TOTEN  =      -455.42910079 eV

  energy without entropy =     -455.42910079  energy(sigma->0) =     -455.42910079


--------------------------------------------------------------------------------------------------------




--------------------------------------- Iteration      1(  10)  ---------------------------------------


    POTLOK:  cpu time    0.2420: real time    0.2477
    SETDIJ:  cpu time    0.0180: real time    0.0179
    EDDIAG:  cpu time    3.6664: real time    3.7324
  RMM-DIIS:  cpu time   15.7276: real time   15.9626
    ORTHCH:  cpu time    0.6189: real time    0.6192
 BZINTS: Fermi energy: -0.247414;544.000000 electrons
         Band energy:***********;  BLOECHL correction: -0.023747
       DOS:  cpu time    0.0420: real time    0.0416
    CHARGE:  cpu time    0.7179: real time    0.7195
    MIXING:  cpu time    0.0060: real time    0.0049
    --------------------------------------------
      LOOP:  cpu time   21.0388: real time   21.3458

 eigenvalue-minimisations  :  8591
 total energy-change (2. order) :-0.3588188E-03  (-0.6605662E-04)
 number of electron     544.0000107 magnetization     137.1552933
 augmentation part      298.9098761 magnetization     110.8221549

 DIPCOR: dipole corrections for dipol
 direction  3 min pos   237,
 dipolmoment           0.000000      0.000000      0.023425 electrons x Angstroem
 Tr[quadrupol]     -9553.962806

 energy correction for charged system         0.000000 eV
 dipol+quadrupol energy correction           -0.000026 eV
 added-field ion interaction         -0.127100 eV  (added to PSCEN)


 Broyden mixing:
  rms(total) = 0.24770E-01    rms(broyden)= 0.24769E-01
  rms(prec ) = 0.27473E-01
  weight for this iteration     100.00

 eigenvalues of (default mixing * dielectric matrix)
  average eigenvalue GAMMA=   0.2790
  0.5339  0.5339  0.0514  0.1286  0.1471

 Free energy of the ion-electron system (eV)
  ---------------------------------------------------
  alpha Z        PSCENC =      1433.57731863
  Ewald energy   TEWEN  =    164419.14697277
  -Hartree energ DENC   =   -209884.44938287
  -exchange      EXHF   =         0.00000000
  -V(xc)+E(xc)   XCENC  =       701.16908132
  PAW double counting   =     51523.48534353   -53057.01453529
  entropy T*S    EENTRO =         0.00000000
  eigenvalues    EBANDS =     -1361.08764192
  atomic energy  EATOM  =     45769.74338420
  Solvation  Ediel_sol  =         0.00000000
  ---------------------------------------------------
  free energy    TOTEN  =      -455.42945961 eV

  energy without entropy =     -455.42945961  energy(sigma->0) =     -455.42945961


--------------------------------------------------------------------------------------------------------




--------------------------------------- Iteration      1(  11)  ---------------------------------------


    POTLOK:  cpu time    0.2450: real time    0.2462
    SETDIJ:  cpu time    0.0360: real time    0.0348
    EDDIAG:  cpu time    3.7324: real time    3.7354
  RMM-DIIS:  cpu time   15.8986: real time   15.9289
    ORTHCH:  cpu time    0.6209: real time    0.6213
 BZINTS: Fermi energy: -0.247148;544.000000 electrons
         Band energy:***********;  BLOECHL correction: -0.023692
       DOS:  cpu time    0.0400: real time    0.0404
    CHARGE:  cpu time    0.7609: real time    0.7609
    MIXING:  cpu time    0.0060: real time    0.0053
    --------------------------------------------
      LOOP:  cpu time   21.3398: real time   21.3732

 eigenvalue-minimisations  :  8585
 total energy-change (2. order) : 0.2395555E-03  (-0.2724277E-04)
 number of electron     544.0000107 magnetization     137.1552886
 augmentation part      298.8988383 magnetization     110.8318830

 DIPCOR: dipole corrections for dipol
 direction  3 min pos   237,
 dipolmoment           0.000000      0.000000      0.024177 electrons x Angstroem
 Tr[quadrupol]     -9553.968822

 energy correction for charged system         0.000000 eV
 dipol+quadrupol energy correction           -0.000028 eV
 added-field ion interaction         -0.131180 eV  (added to PSCEN)


 Broyden mixing:
  rms(total) = 0.97578E-02    rms(broyden)= 0.97568E-02
  rms(prec ) = 0.10075E-01
  weight for this iteration     100.00

 eigenvalues of (default mixing * dielectric matrix)
  average eigenvalue GAMMA=   0.3020
  0.5938  0.5938  0.3029  0.0514  0.1478  0.1226

 Free energy of the ion-electron system (eV)
  ---------------------------------------------------
  alpha Z        PSCENC =      1433.57323674
  Ewald energy   TEWEN  =    164419.14697277
  -Hartree energ DENC   =   -209884.72306249
  -exchange      EXHF   =         0.00000000
  -V(xc)+E(xc)   XCENC  =       701.16660285
  PAW double counting   =     51519.38413566   -53052.94186139
  entropy T*S    EENTRO =         0.00000000
  eigenvalues    EBANDS =     -1360.77862839
  atomic energy  EATOM  =     45769.74338420
  Solvation  Ediel_sol  =         0.00000000
  ---------------------------------------------------
  free energy    TOTEN  =      -455.42922006 eV

  energy without entropy =     -455.42922006  energy(sigma->0) =     -455.42922006


--------------------------------------------------------------------------------------------------------




--------------------------------------- Iteration      1(  12)  ---------------------------------------


    POTLOK:  cpu time    0.2450: real time    0.2456
    SETDIJ:  cpu time    0.0180: real time    0.0177
    EDDIAG:  cpu time    3.7154: real time    3.7217
  RMM-DIIS:  cpu time   16.9024: real time   16.9269
    ORTHCH:  cpu time    0.6439: real time    0.6438
 BZINTS: Fermi energy: -0.247185;544.000000 electrons
         Band energy:***********;  BLOECHL correction: -0.023693
       DOS:  cpu time    0.0400: real time    0.0397
    CHARGE:  cpu time    0.7409: real time    0.7410
    MIXING:  cpu time    0.0050: real time    0.0054
    --------------------------------------------
      LOOP:  cpu time   22.3106: real time   22.3417

 eigenvalue-minimisations  :  9127
 total energy-change (2. order) :-0.3349438E-04  (-0.8190566E-05)
 number of electron     544.0000107 magnetization     137.1551962
 augmentation part      298.8995984 magnetization     110.8310259

 DIPCOR: dipole corrections for dipol
 direction  3 min pos   237,
 dipolmoment           0.000000      0.000000      0.024133 electrons x Angstroem
 Tr[quadrupol]     -9553.969475

 energy correction for charged system         0.000000 eV
 dipol+quadrupol energy correction           -0.000028 eV
 added-field ion interaction         -0.130937 eV  (added to PSCEN)


 Broyden mixing:
  rms(total) = 0.91674E-02    rms(broyden)= 0.91672E-02
  rms(prec ) = 0.95188E-02
  weight for this iteration     100.00

 eigenvalues of (default mixing * dielectric matrix)
  average eigenvalue GAMMA=   0.3368
  0.7418  0.7418  0.4001  0.0514  0.1661  0.1319  0.1243

 Free energy of the ion-electron system (eV)
  ---------------------------------------------------
  alpha Z        PSCENC =      1433.57348029
  Ewald energy   TEWEN  =    164419.14697277
  -Hartree energ DENC   =   -209884.73217548
  -exchange      EXHF   =         0.00000000
  -V(xc)+E(xc)   XCENC  =       701.16180623
  PAW double counting   =     51517.19315848   -53050.75026971
  entropy T*S    EENTRO =         0.00000000
  eigenvalues    EBANDS =     -1360.76561033
  atomic energy  EATOM  =     45769.74338420
  Solvation  Ediel_sol  =         0.00000000
  ---------------------------------------------------
  free energy    TOTEN  =      -455.42925355 eV

  energy without entropy =     -455.42925355  energy(sigma->0) =     -455.42925355


--------------------------------------------------------------------------------------------------------




--------------------------------------- Iteration      1(  13)  ---------------------------------------


    POTLOK:  cpu time    0.2440: real time    0.2471
    SETDIJ:  cpu time    0.0180: real time    0.0179
    EDDIAG:  cpu time    3.6964: real time    3.6988
  RMM-DIIS:  cpu time   16.7655: real time   16.7948
    ORTHCH:  cpu time    0.6199: real time    0.6222
 BZINTS: Fermi energy: -0.247211;544.000000 electrons
         Band energy:***********;  BLOECHL correction: -0.023687
       DOS:  cpu time    0.0410: real time    0.0425
    CHARGE:  cpu time    0.7609: real time    0.7604
    MIXING:  cpu time    0.0060: real time    0.0054
    --------------------------------------------
      LOOP:  cpu time   22.1516: real time   22.1891

 eigenvalue-minimisations  :  9089
 total energy-change (2. order) :-0.6689157E-04  (-0.2775613E-05)
 number of electron     544.0000107 magnetization     137.1551340
 augmentation part      298.9008477 magnetization     110.8295163

 DIPCOR: dipole corrections for dipol
 direction  3 min pos   237,
 dipolmoment           0.000000      0.000000      0.024181 electrons x Angstroem
 Tr[quadrupol]     -9553.969613

 energy correction for charged system         0.000000 eV
 dipol+quadrupol energy correction           -0.000028 eV
 added-field ion interaction         -0.131202 eV  (added to PSCEN)


 Broyden mixing:
  rms(total) = 0.69789E-02    rms(broyden)= 0.69788E-02
  rms(prec ) = 0.71234E-02
  weight for this iteration     100.00

 eigenvalues of (default mixing * dielectric matrix)
  average eigenvalue GAMMA=   0.3293
  0.7818  0.7818  0.3077  0.3077  0.0514  0.1421  0.1421  0.1199

 Free energy of the ion-electron system (eV)
  ---------------------------------------------------
  alpha Z        PSCENC =      1433.57321440
  Ewald energy   TEWEN  =    164419.14697277
  -Hartree energ DENC   =   -209884.70324398
  -exchange      EXHF   =         0.00000000
  -V(xc)+E(xc)   XCENC  =       701.15235772
  PAW double counting   =     51513.20219647   -53046.75309960
  entropy T*S    EENTRO =         0.00000000
  eigenvalues    EBANDS =     -1360.79110242
  atomic energy  EATOM  =     45769.74338420
  Solvation  Ediel_sol  =         0.00000000
  ---------------------------------------------------
  free energy    TOTEN  =      -455.42932044 eV

  energy without entropy =     -455.42932044  energy(sigma->0) =     -455.42932044


--------------------------------------------------------------------------------------------------------




--------------------------------------- Iteration      1(  14)  ---------------------------------------


    POTLOK:  cpu time    0.2460: real time    0.2464
    SETDIJ:  cpu time    0.0170: real time    0.0174
    EDDIAG:  cpu time    3.7394: real time    3.7466
  RMM-DIIS:  cpu time   15.6526: real time   15.6855
    ORTHCH:  cpu time    0.6739: real time    0.6751
 BZINTS: Fermi energy: -0.247240;544.000000 electrons
         Band energy:***********;  BLOECHL correction: -0.023671
       DOS:  cpu time    0.0420: real time    0.0423
    CHARGE:  cpu time    0.7219: real time    0.7215
    MIXING:  cpu time    0.0060: real time    0.0055
    --------------------------------------------
      LOOP:  cpu time   21.0988: real time   21.1403

 eigenvalue-minimisations  :  8464
 total energy-change (2. order) :-0.1867539E-04  (-0.8724732E-06)
 number of electron     544.0000107 magnetization     137.1548096
 augmentation part      298.9010378 magnetization     110.8293888

 DIPCOR: dipole corrections for dipol
 direction  3 min pos   237,
 dipolmoment           0.000000      0.000000      0.024156 electrons x Angstroem
 Tr[quadrupol]     -9553.970099

 energy correction for charged system         0.000000 eV
 dipol+quadrupol energy correction           -0.000028 eV
 added-field ion interaction         -0.131066 eV  (added to PSCEN)


 Broyden mixing:
  rms(total) = 0.63086E-02    rms(broyden)= 0.63086E-02
  rms(prec ) = 0.64147E-02
  weight for this iteration     100.00

 eigenvalues of (default mixing * dielectric matrix)
  average eigenvalue GAMMA=   0.3816
  0.9503  0.9503  0.4598  0.4598  0.0514  0.1576  0.1576  0.1240  0.1240

 Free energy of the ion-electron system (eV)
  ---------------------------------------------------
  alpha Z        PSCENC =      1433.57335076
  Ewald energy   TEWEN  =    164419.14697277
  -Hartree energ DENC   =   -209884.70777810
  -exchange      EXHF   =         0.00000000
  -V(xc)+E(xc)   XCENC  =       701.14957279
  PAW double counting   =     51511.69589259   -53045.24514992
  entropy T*S    EENTRO =         0.00000000
  eigenvalues    EBANDS =     -1360.78558421
  atomic energy  EATOM  =     45769.74338420
  Solvation  Ediel_sol  =         0.00000000
  ---------------------------------------------------
  free energy    TOTEN  =      -455.42933912 eV

  energy without entropy =     -455.42933912  energy(sigma->0) =     -455.42933912


--------------------------------------------------------------------------------------------------------




--------------------------------------- Iteration      1(  15)  ---------------------------------------


    POTLOK:  cpu time    0.2450: real time    0.2460
    SETDIJ:  cpu time    0.0180: real time    0.0174
    EDDIAG:  cpu time    3.7294: real time    3.7340
  RMM-DIIS:  cpu time   14.2758: real time   14.3027
    ORTHCH:  cpu time    0.6819: real time    0.6844
 BZINTS: Fermi energy: -0.247308;544.000000 electrons
         Band energy:***********;  BLOECHL correction: -0.023671
       DOS:  cpu time    0.0420: real time    0.0421
    CHARGE:  cpu time    0.7179: real time    0.7199
    MIXING:  cpu time    0.0080: real time    0.0071
    --------------------------------------------
      LOOP:  cpu time   19.7180: real time   19.7537

 eigenvalue-minimisations  :  7583
 total energy-change (2. order) :-0.9550792E-04  (-0.7121224E-06)
 number of electron     544.0000107 magnetization     137.1546382
 augmentation part      298.9026054 magnetization     110.8279180

 DIPCOR: dipole corrections for dipol
 direction  3 min pos   237,
 dipolmoment           0.000000      0.000000      0.024188 electrons x Angstroem
 Tr[quadrupol]     -9553.970047

 energy correction for charged system         0.000000 eV
 dipol+quadrupol energy correction           -0.000028 eV
 added-field ion interaction         -0.131239 eV  (added to PSCEN)


 Broyden mixing:
  rms(total) = 0.51697E-02    rms(broyden)= 0.51696E-02
  rms(prec ) = 0.53025E-02
  weight for this iteration     100.00

 eigenvalues of (default mixing * dielectric matrix)
  average eigenvalue GAMMA=   0.3752
  1.0118  1.0118  0.4694  0.4694  0.0514  0.1783  0.1783  0.1190  0.1315  0.1315

 Free energy of the ion-electron system (eV)
  ---------------------------------------------------
  alpha Z        PSCENC =      1433.57317787
  Ewald energy   TEWEN  =    164419.14697277
  -Hartree energ DENC   =   -209884.67393939
  -exchange      EXHF   =         0.00000000
  -V(xc)+E(xc)   XCENC  =       701.14117233
  PAW double counting   =     51507.51858929   -53041.06121624
  entropy T*S    EENTRO =         0.00000000
  eigenvalues    EBANDS =     -1360.81757546
  atomic energy  EATOM  =     45769.74338420
  Solvation  Ediel_sol  =         0.00000000
  ---------------------------------------------------
  free energy    TOTEN  =      -455.42943463 eV

  energy without entropy =     -455.42943463  energy(sigma->0) =     -455.42943463


--------------------------------------------------------------------------------------------------------




--------------------------------------- Iteration      1(  16)  ---------------------------------------


    POTLOK:  cpu time    0.2430: real time    0.2460
    SETDIJ:  cpu time    0.0180: real time    0.0178
    EDDIAG:  cpu time    3.7464: real time    3.7625
  RMM-DIIS:  cpu time   12.6221: real time   12.6614
    ORTHCH:  cpu time    0.6209: real time    0.6218
 BZINTS: Fermi energy: -0.247344;544.000000 electrons
         Band energy:***********;  BLOECHL correction: -0.023658
       DOS:  cpu time    0.0430: real time    0.0439
    CHARGE:  cpu time    0.7549: real time    0.7561
    MIXING:  cpu time    0.0070: real time    0.0061
    --------------------------------------------
      LOOP:  cpu time   18.0553: real time   18.1156

 eigenvalue-minimisations  :  6629
 total energy-change (2. order) :-0.2592986E-04  (-0.3346655E-06)
 number of electron     544.0000107 magnetization     137.1541427
 augmentation part      298.9029907 magnetization     110.8274009

 DIPCOR: dipole corrections for dipol
 direction  3 min pos   237,
 dipolmoment           0.000000      0.000000      0.024147 electrons x Angstroem
 Tr[quadrupol]     -9553.970380

 energy correction for charged system         0.000000 eV
 dipol+quadrupol energy correction           -0.000028 eV
 added-field ion interaction         -0.131014 eV  (added to PSCEN)


 Broyden mixing:
  rms(total) = 0.43694E-02    rms(broyden)= 0.43693E-02
  rms(prec ) = 0.44524E-02
  weight for this iteration     100.00

 eigenvalues of (default mixing * dielectric matrix)
  average eigenvalue GAMMA=   0.4286
  1.2028  1.2028  0.5717  0.5717  0.4127  0.0514  0.1771  0.1413  0.1413  0.1206
  0.1206

 Free energy of the ion-electron system (eV)
  ---------------------------------------------------
  alpha Z        PSCENC =      1433.57340284
  Ewald energy   TEWEN  =    164419.14697277
  -Hartree energ DENC   =   -209884.67281785
  -exchange      EXHF   =         0.00000000
  -V(xc)+E(xc)   XCENC  =       701.13786749
  PAW double counting   =     51505.72804905   -53039.26840721
  entropy T*S    EENTRO =         0.00000000
  eigenvalues    EBANDS =     -1360.81791186
  atomic energy  EATOM  =     45769.74338420
  Solvation  Ediel_sol  =         0.00000000
  ---------------------------------------------------
  free energy    TOTEN  =      -455.42946056 eV

  energy without entropy =     -455.42946056  energy(sigma->0) =     -455.42946056


--------------------------------------------------------------------------------------------------------




--------------------------------------- Iteration      1(  17)  ---------------------------------------


    POTLOK:  cpu time    0.2470: real time    0.2484
    SETDIJ:  cpu time    0.0180: real time    0.0176
    EDDIAG:  cpu time    3.7394: real time    3.7590
  RMM-DIIS:  cpu time   12.5261: real time   12.5612
    ORTHCH:  cpu time    0.6239: real time    0.6244
 BZINTS: Fermi energy: -0.247375;544.000000 electrons
         Band energy:***********;  BLOECHL correction: -0.023657
       DOS:  cpu time    0.0410: real time    0.0411
    CHARGE:  cpu time    0.7429: real time    0.7423
    MIXING:  cpu time    0.0070: real time    0.0070
    --------------------------------------------
      LOOP:  cpu time   17.9453: real time   18.0010

 eigenvalue-minimisations  :  6664
 total energy-change (2. order) :-0.6935998E-04  (-0.3634572E-06)
 number of electron     544.0000107 magnetization     137.1538284
 augmentation part      298.9039661 magnetization     110.8260531

 DIPCOR: dipole corrections for dipol
 direction  3 min pos   237,
 dipolmoment           0.000000      0.000000      0.024179 electrons x Angstroem
 Tr[quadrupol]     -9553.970446

 energy correction for charged system         0.000000 eV
 dipol+quadrupol energy correction           -0.000028 eV
 added-field ion interaction         -0.131189 eV  (added to PSCEN)


 Broyden mixing:
  rms(total) = 0.35693E-02    rms(broyden)= 0.35693E-02
  rms(prec ) = 0.36622E-02
  weight for this iteration     100.00

 eigenvalues of (default mixing * dielectric matrix)
  average eigenvalue GAMMA=   0.4354
  1.3241  1.3241  0.6149  0.6149  0.4246  0.0514  0.1909  0.1541  0.1541  0.1183
  0.1266  0.1266

 Free energy of the ion-electron system (eV)
  ---------------------------------------------------
  alpha Z        PSCENC =      1433.57322749
  Ewald energy   TEWEN  =    164419.14697277
  -Hartree energ DENC   =   -209884.65676370
  -exchange      EXHF   =         0.00000000
  -V(xc)+E(xc)   XCENC  =       701.13168131
  PAW double counting   =     51502.85422042   -53036.38946978
  entropy T*S    EENTRO =         0.00000000
  eigenvalues    EBANDS =     -1360.83278263
  atomic energy  EATOM  =     45769.74338420
  Solvation  Ediel_sol  =         0.00000000
  ---------------------------------------------------
  free energy    TOTEN  =      -455.42952992 eV

  energy without entropy =     -455.42952992  energy(sigma->0) =     -455.42952992


--------------------------------------------------------------------------------------------------------




--------------------------------------- Iteration      1(  18)  ---------------------------------------


    POTLOK:  cpu time    0.2450: real time    0.2460
    SETDIJ:  cpu time    0.0180: real time    0.0176
    EDDIAG:  cpu time    3.7724: real time    3.7802
[...]
   0.396E+01 -.892E+02 -.202E+04   -.392E+01 0.901E+02 0.202E+04   -.339E-01 -.967E+00 0.205E+01   0.630E-03 -.858E-03 -.159E-02
   -.659E+01 -.111E+02 0.205E+04   0.684E+01 0.110E+02 -.205E+04   -.684E+00 -.563E+00 -.229E+01   -.132E-02 0.852E-03 0.840E-03
   -.486E+01 -.504E+02 -.204E+04   0.488E+01 0.510E+02 0.204E+04   -.125E-01 -.573E+00 0.166E+01   -.128E-02 -.239E-03 -.166E-02
   -.216E+02 -.753E+01 0.202E+04   0.215E+02 0.767E+01 -.202E+04   0.526E+00 -.511E+00 -.230E+01   -.265E-03 0.158E-02 0.587E-03
   -.720E+01 -.476E+02 -.206E+04   0.686E+01 0.477E+02 0.206E+04   0.338E+00 -.144E+00 0.279E+01   -.670E-03 0.380E-03 -.924E-03
   -.511E+02 0.105E+02 0.740E+03   0.510E+02 -.107E+02 -.740E+03   -.758E+00 -.318E-01 0.731E+00   -.118E-02 0.737E-03 0.574E-03
   0.212E+02 -.159E+02 0.200E+04   -.214E+02 0.163E+02 -.200E+04   -.219E+00 -.111E+01 -.258E+01   0.141E-02 0.106E-02 0.120E-02
   0.125E+02 -.700E+02 -.204E+04   -.123E+02 0.707E+02 0.203E+04   -.137E+00 -.736E+00 0.309E+01   0.120E-02 0.958E-04 -.812E-03
   -.152E+02 0.413E+01 0.628E+03   0.153E+02 -.442E+01 -.627E+03   0.106E+00 -.508E+00 -.526E+00   0.766E-03 0.139E-02 -.797E-04
   -.674E+02 0.766E+01 -.671E+03   0.677E+02 -.778E+01 0.671E+03   -.284E+00 0.121E+00 0.336E+00   -.860E-03 0.488E-03 -.194E-02
   0.432E+02 -.504E+02 0.680E+03   -.430E+02 0.505E+02 -.679E+03   0.693E+00 -.256E+00 -.199E+00   0.158E-02 0.591E-03 -.259E-03
   0.579E+02 -.555E+02 -.646E+03   -.581E+02 0.557E+02 0.645E+03   0.254E+00 -.127E+00 0.720E+00   0.179E-02 0.355E-04 -.180E-02
   -.487E+01 -.359E+01 0.201E+04   0.461E+01 0.350E+01 -.200E+04   0.653E+00 0.568E+00 -.245E+01   0.217E-03 -.102E-02 0.105E-02
   0.939E+01 0.176E+02 -.202E+04   -.980E+01 -.182E+02 0.202E+04   0.428E+00 0.556E+00 0.286E+01   0.153E-03 -.308E-03 -.852E-03
   0.145E+02 -.727E+01 0.202E+04   -.144E+02 0.698E+01 -.202E+04   -.443E+00 0.709E+00 -.256E+01   -.331E-03 -.108E-02 0.781E-03
   0.992E+01 0.237E+02 -.202E+04   -.956E+01 -.242E+02 0.202E+04   -.344E+00 0.529E+00 0.219E+01   -.998E-04 -.915E-03 -.142E-02
   0.477E+02 -.243E+02 0.672E+03   -.478E+02 0.241E+02 -.672E+03   0.787E-01 -.445E+00 -.108E+00   -.186E-03 -.114E-02 -.774E-03
   -.788E+00 0.117E+02 0.204E+04   0.776E+00 -.113E+02 -.204E+04   -.990E-01 -.818E-01 -.184E+01   -.124E-03 0.950E-04 0.601E-03
   -.268E+02 -.454E+00 -.201E+04   0.268E+02 0.575E+00 0.201E+04   0.429E-01 -.148E+00 0.106E+01   -.266E-03 0.301E-03 -.163E-02
   0.176E+02 -.252E+02 0.742E+03   -.176E+02 0.256E+02 -.741E+03   0.197E+00 0.372E+00 0.350E+00   -.456E-03 -.196E-03 -.220E-03
   0.653E+02 -.830E+02 -.662E+03   -.657E+02 0.834E+02 0.662E+03   0.346E+00 -.424E+00 0.101E+00   -.229E-03 -.991E-03 -.187E-02
   -.107E+02 0.118E+02 0.204E+04   0.108E+02 -.115E+02 -.204E+04   0.295E-01 0.177E+00 -.229E+01   0.204E-03 0.296E-03 0.123E-02
   0.593E+01 0.145E+02 -.204E+04   -.585E+01 -.143E+02 0.203E+04   -.930E-01 -.149E+00 0.278E+01   0.149E-03 0.658E-03 -.999E-03
   -.538E+02 0.213E+02 0.700E+03   0.540E+02 -.209E+02 -.699E+03   0.939E-01 0.433E+00 0.138E-01   0.292E-03 0.961E-03 -.537E-04
   -.120E+02 0.167E+01 0.640E+03   0.121E+02 -.133E+01 -.639E+03   -.363E+00 0.463E+00 -.799E-01   0.332E-03 0.164E-03 -.728E-03
   -.563E+02 -.552E+01 -.733E+03   0.566E+02 0.553E+01 0.733E+03   -.316E+00 0.209E-02 0.262E+00   -.443E-05 0.822E-03 -.265E-02
   0.458E+02 -.607E+02 -.687E+03   -.460E+02 0.609E+02 0.687E+03   0.193E+00 -.143E+00 0.153E+00   0.894E-03 -.499E-03 -.242E-02
   -.937E+01 0.412E+02 0.636E+03   0.885E+01 -.414E+02 -.635E+03   -.176E-01 -.106E-01 -.305E+00   -.955E-03 -.121E-02 -.269E-03
   0.233E+02 -.146E+01 0.667E+03   -.228E+02 0.164E+01 -.666E+03   0.563E+00 -.263E+00 -.121E+00   0.575E-03 -.141E-02 -.529E-03
   0.436E+02 0.245E+02 -.685E+03   -.438E+02 -.248E+02 0.684E+03   0.238E+00 0.257E+00 0.536E+00   0.406E-04 -.109E-02 -.172E-02
   -.515E+02 0.452E+02 -.677E+03   0.517E+02 -.453E+02 0.677E+03   -.125E+00 0.115E+00 -.110E+00   -.714E-04 0.868E-03 -.206E-02
   -.450E+02 0.782E+02 -.708E+03   0.453E+02 -.785E+02 0.709E+03   -.378E+00 0.337E+00 -.108E+00   -.499E-03 0.278E-03 -.218E-02
   0.106E+02 0.307E+02 0.251E+04   -.107E+02 -.307E+02 -.251E+04   0.142E+00 0.167E+00 -.919E+00   0.894E-04 -.197E-02 0.114E-02
   0.216E+02 0.603E+02 -.251E+04   -.218E+02 -.606E+02 0.251E+04   0.207E+00 0.270E+00 0.958E+00   -.471E-03 -.124E-02 -.135E-02
   -.113E+02 0.318E+01 0.255E+04   0.115E+02 -.329E+01 -.255E+04   -.519E+00 0.104E+00 -.120E+01   -.106E-02 0.936E-03 0.193E-02
   -.326E+02 -.274E+01 -.253E+04   0.329E+02 0.274E+01 0.253E+04   -.219E+00 -.742E-02 -.437E+00   -.124E-02 0.282E-03 -.316E-02
   0.138E+02 -.319E+02 0.250E+04   -.139E+02 0.321E+02 -.249E+04   0.234E+00 -.207E+00 -.155E+01   0.116E-02 0.110E-03 0.508E-03
   0.208E+02 -.368E+02 -.249E+04   -.212E+02 0.370E+02 0.249E+04   0.316E+00 -.210E+00 0.860E+00   0.104E-02 0.216E-04 -.143E-02
   0.138E+02 -.218E+02 0.253E+04   -.138E+02 0.218E+02 -.252E+04   -.196E-01 0.350E-01 -.168E+01   0.128E-02 0.930E-03 0.161E-02
   0.205E+02 -.181E+01 -.252E+04   -.208E+02 0.166E+01 0.252E+04   0.318E+00 0.118E+00 0.786E+00   0.219E-02 -.103E-03 -.257E-02
   -.199E+02 0.105E+03 -.794E+03   0.197E+02 -.105E+03 0.793E+03   0.132E+00 0.310E+00 0.332E+00   -.139E-02 0.140E-02 -.256E-02
   0.278E+02 -.436E+02 0.922E+03   -.281E+02 0.436E+02 -.922E+03   0.978E-01 -.398E+00 -.236E+00   -.136E-02 -.134E-03 0.609E-03
   -.891E+02 -.845E+01 -.763E+03   0.893E+02 0.850E+01 0.763E+03   -.208E+00 -.487E-01 0.168E+00   -.242E-02 -.141E-03 -.181E-02
   0.957E+02 -.734E+02 -.768E+03   -.960E+02 0.737E+02 0.767E+03   0.223E+00 -.247E+00 0.392E+00   0.974E-03 -.690E-03 -.252E-02
   -.704E+02 -.128E+02 -.831E+03   0.706E+02 0.130E+02 0.830E+03   -.292E+00 -.234E+00 0.332E+00   -.940E-03 0.432E-03 -.260E-02
   0.305E+02 0.496E+01 0.890E+03   -.307E+02 -.500E+01 -.889E+03   0.942E-01 0.268E-01 -.180E+00   0.972E-03 -.248E-03 0.565E-04
   0.598E+02 -.226E+02 -.815E+03   -.600E+02 0.228E+02 0.815E+03   0.182E+00 -.191E+00 0.230E-01   0.556E-03 -.671E-03 -.203E-02
   -.505E+02 0.604E+02 0.889E+03   0.505E+02 -.606E+02 -.889E+03   -.451E+00 0.268E+00 -.319E-01   -.395E-03 0.933E-04 0.224E-03
 -----------------------------------------------------------------------------------------------
   -.104E+01 -.105E+00 0.236E+01   0.711E-13 0.924E-12 -.136E-11   0.104E+01 0.111E+00 -.232E+01   -.722E-03 -.191E-03 -.399E-01
 
 
 POSITION                                       TOTAL-FORCE (eV/Angst)
 -----------------------------------------------------------------------------------
     -5.03208      8.74992      2.05921        -0.192377     -0.124070     -0.196502
     -5.03974      8.74788      8.31994         0.030822      0.003957     -0.078005
      0.00574      8.72607      2.04467        -0.329638      0.383950     -0.010123
      5.05367      0.03871      8.29252         0.013167     -0.000698     -0.088443
      2.47665      8.72592      2.00820         0.321359      0.133450      0.170581
      2.55801      8.75333      8.21321         0.020147     -0.030098     -0.130520
      1.23891      2.21748      2.05881         0.432466     -0.130921     -0.538945
      1.33480      2.15879      8.29923        -0.000552     -0.029822     -0.070297
      0.08074      1.41419      4.05320        -0.965193      0.337979      0.632609
      2.49330      1.45451      4.14829         0.675052      0.117387     -0.303354
      1.20657      0.75352      6.27261        -0.009107      0.017495     -0.075148
      5.06166      1.44930      4.13498        -0.320817      0.070728     -0.467630
      3.75519      0.73647      6.24559        -0.016947     -0.007545     -0.063907
      7.51557      1.45812      4.11001         0.616086     -0.113045     -0.073937
      6.27747      0.70011      6.20036        -0.050112      0.010930     -0.055718
     -2.55062      4.47399      2.00996         0.239689     -0.723934      0.169936
     -2.49550      4.33035      8.23378         0.011943     -0.002051     -0.109578
      0.03014      4.42905      2.07021        -0.425537     -0.613572     -0.617077
      0.05202      4.33690      8.19193         0.006228     -0.019784     -0.090705
      2.50847      4.40516      2.07435         0.388215     -0.358832     -0.814515
      2.54243      4.38607      8.35012        -0.009337     -0.006357     -0.116847
      1.32139      3.64145      4.02772        -0.853534     -0.214443      1.342645
      5.08382      4.44890      2.04816        -0.386706     -0.695374     -0.516011
      5.10301      4.36246      8.38115         0.031448     -0.016136     -0.056289
      3.79377      3.69800      4.13070         0.120286     -0.786548      0.268497
      2.47594      2.98306      6.24726        -0.004729      0.007914     -0.078275
      6.25293      3.64956      4.08305         0.820256     -0.130349      0.345222
      5.06386      2.91883      6.25151         0.006039      0.022671     -0.067821
      6.25194      6.54167      2.03547         0.381298      0.457940     -0.414021
      6.32672      6.53602      8.36148         0.013046     -0.038290     -0.058728
     -1.23133      6.52951      2.06362        -0.269809      0.402605     -0.579074
     -1.23783      6.53244      8.25020         0.027471     -0.026767     -0.096966
     -2.52172      5.87475      4.08746         0.008649     -0.576906      0.350982
      1.28426      6.55944      2.07409        -0.114009      0.396144     -0.578529
      1.23396      6.58908      8.16518        -0.006975     -0.021975     -0.071689
     -0.00626      5.79145      4.04458         0.203837      0.732884      1.077254
     -1.24593      5.05075      6.12428        -0.017336      0.013255     -0.053740
      3.77628      6.55571      2.00000         0.091541      0.392264     -0.198722
      3.81325      6.58821      8.37062        -0.014378      0.021672     -0.111989
      2.52387      5.78801      4.07310         0.244654      0.783757      0.690332
      5.06734      5.79704      4.10517        -0.326479      0.793774      0.651569
      3.75204      5.14804      6.28529         0.011105      0.011568     -0.060780
      6.31585      5.10436      6.22762        -0.006873      0.023210     -0.044575
     -3.76296      8.02446      4.11956        -0.536349     -0.196356      0.186112
     -1.33707      8.05044      4.10307         1.023572     -0.084748      0.309724
     -2.56467      7.28414      6.23641        -0.021263     -0.058076     -0.048364
      2.47666      7.30503      6.10206        -0.012431      0.034738     -0.064803
      4.99209      7.33507      6.21707        -0.026906      0.016803     -0.070274
     -2.52690      8.74056      2.03303         0.008149      0.118546      0.225560
     -2.48994      8.74362      8.27896        -0.007406     -0.005044     -0.081434
     -1.24953      2.18697      2.05404        -0.295189     -0.011094      0.332905
     -1.21430      2.17610      8.11282         0.037017     -0.007950     -0.099412
      3.77687      2.20348      2.02824         0.082897     -0.015518      0.595592
      3.83080      2.21003      8.25647         0.000330     -0.005922     -0.101983
      6.31052      2.19548      2.03585        -0.009556      0.041296      0.190372
      6.36245      2.17701      8.20754         0.041960     -0.036783     -0.057534
      8.83783      0.74036      6.13680        -0.000857     -0.006976     -0.116404
     -1.27338      3.65234      4.08854        -0.133927     -0.375447     -0.032056
      0.00875      2.90202      6.10119         0.050395      0.001074     -0.094890
      7.57855      2.90576      6.14133        -0.022183      0.033481     -0.098371
      1.24179      5.10341      6.14801        -0.000599     -0.018175     -0.063818
      1.25660      8.01495      4.09193        -0.106277     -0.009737      0.177506
     -0.03507      7.26305      6.11608        -0.042375      0.025077     -0.086041
      3.80919      8.00883      4.09175        -0.423359      0.092798      0.186444
 -----------------------------------------------------------------------------------
    total drift:                               -0.003371      0.005254     -0.001225


--------------------------------------------------------------------------------------------------------



  FREE ENERGIE OF THE ION-ELECTRON SYSTEM (eV)
  ---------------------------------------------------
  free  energy   TOTEN  =      -469.49864046 eV

  energy  without entropy=     -469.49864046  energy(sigma->0) =     -469.49864046
 


--------------------------------------------------------------------------------------------------------


    POTLOK:  cpu time    0.2850: real time    0.2891


--------------------------------------------------------------------------------------------------------


     LOOP+:  cpu time  563.9673: real time  566.7981
    4ORBIT:  cpu time    0.0000: real time    0.0000
 


 total charge     
 
# of ion       s       p       d       tot
------------------------------------------
    1        0.478   0.397   6.176   7.051
    2        0.474   0.385   6.173   7.033
    3        0.472   0.388   6.157   7.017
    4        0.467   0.382   6.153   7.002
    5        0.468   0.382   6.157   7.007
    6        0.474   0.397   6.161   7.032
    7        0.481   0.402   6.195   7.078
    8        0.469   0.386   6.177   7.033
    9        0.481   0.507   6.222   7.209
   10        0.480   0.510   6.223   7.213
   11        0.479   0.511   6.212   7.202
   12        0.475   0.499   6.210   7.185
   13        0.472   0.500   6.212   7.183
   14        0.463   0.478   6.180   7.121
   15        0.476   0.504   6.215   7.194
   16        0.474   0.389   6.177   7.041
   17        0.472   0.397   6.166   7.036
   18        0.492   0.426   6.212   7.130
   19        0.473   0.401   6.168   7.041
   20        0.497   0.431   6.215   7.142
   21        0.473   0.381   6.180   7.034
   22        0.496   0.538   6.250   7.283
   23        0.489   0.417   6.202   7.107
   24        0.470   0.383   6.163   7.016
   25        0.486   0.520   6.229   7.235
   26        0.472   0.505   6.203   7.180
   27        0.481   0.509   6.219   7.209
   28        0.470   0.499   6.206   7.176
   29        0.489   0.426   6.203   7.117
   30        0.469   0.389   6.166   7.024
   31        0.491   0.423   6.205   7.119
   32        0.469   0.391   6.174   7.034
   33        0.486   0.526   6.232   7.245
   34        0.496   0.444   6.217   7.156
   35        0.474   0.409   6.173   7.056
   36        0.488   0.526   6.236   7.250
   37        0.474   0.502   6.197   7.174
   38        0.482   0.414   6.194   7.090
   39        0.473   0.391   6.176   7.040
   40        0.488   0.526   6.241   7.255
   41        0.485   0.525   6.225   7.236
   42        0.473   0.503   6.202   7.179
   43        0.473   0.503   6.203   7.179
   44        0.485   0.523   6.235   7.243
   45        0.480   0.510   6.226   7.215
   46        0.474   0.501   6.204   7.178
   47        0.475   0.501   6.208   7.184
   48        0.471   0.499   6.203   7.173
   49        0.502   0.383   8.316   9.201
   50        0.514   0.404   8.315   9.234
   51        0.497   0.370   8.316   9.183
   52        0.506   0.406   8.310   9.222
   53        0.486   0.356   8.316   9.159
   54        0.512   0.407   8.320   9.239
   55        0.500   0.371   8.316   9.187
   56        0.511   0.402   8.320   9.233
   57        0.509   0.511   8.316   9.336
   58        0.502   0.498   8.321   9.321
   59        0.508   0.508   8.317   9.332
   60        0.506   0.503   8.322   9.331
   61        0.517   0.529   8.319   9.365
   62        0.515   0.528   8.314   9.357
   63        0.508   0.513   8.308   9.329
   64        0.504   0.507   8.308   9.319
--------------------------------------------------
tot         31.044  29.048 430.590 490.682
 


 magnetization (x)
 
# of ion       s       p       d       tot
------------------------------------------
    1       -0.003  -0.011   2.729   2.714
    2       -0.003  -0.008   2.737   2.726
    3       -0.000  -0.008   2.777   2.768
    4        0.000  -0.014   2.797   2.784
    5        0.002  -0.009   2.775   2.768
    6       -0.004  -0.016   2.758   2.738
    7       -0.004  -0.010   2.690   2.676
    8        0.002  -0.011   2.727   2.717
    9       -0.011  -0.031   2.596   2.554
   10       -0.014  -0.038   2.569   2.516
   11       -0.013  -0.041   2.613   2.558
   12       -0.013  -0.037   2.588   2.538
   13       -0.013  -0.038   2.600   2.549
   14       -0.002  -0.018   2.701   2.681
   15       -0.010  -0.034   2.597   2.553
   16       -0.002  -0.006   2.742   2.734
   17       -0.004  -0.022   2.737   2.710
   18       -0.007  -0.017   2.648   2.624
   19       -0.004  -0.022   2.723   2.696
   20       -0.011  -0.018   2.652   2.623
   21       -0.006  -0.013   2.711   2.692
   22       -0.017  -0.044   2.535   2.475
   23       -0.007  -0.016   2.684   2.662
   24       -0.004  -0.016   2.753   2.733
   25       -0.018  -0.044   2.558   2.496
   26       -0.012  -0.042   2.644   2.591
   27       -0.013  -0.038   2.587   2.537
   28       -0.009  -0.035   2.623   2.578
   29       -0.010  -0.028   2.658   2.620
   30       -0.005  -0.023   2.740   2.712
   31       -0.011  -0.021   2.653   2.621
   32       -0.005  -0.024   2.709   2.679
   33       -0.019  -0.052   2.540   2.469
   34       -0.011  -0.033   2.602   2.558
   35       -0.008  -0.030   2.702   2.664
   36       -0.014  -0.039   2.566   2.514
   37       -0.009  -0.034   2.660   2.617
   38       -0.008  -0.026   2.661   2.627
   39       -0.010  -0.027   2.708   2.672
   40       -0.016  -0.042   2.543   2.485
   41       -0.017  -0.050   2.589   2.523
   42       -0.018  -0.053   2.621   2.551
   43       -0.017  -0.051   2.629   2.560
   44       -0.016  -0.045   2.533   2.472
   45       -0.013  -0.039   2.559   2.507
   46       -0.013  -0.040   2.631   2.578
   47       -0.009  -0.036   2.624   2.580
   48       -0.015  -0.047   2.628   2.566
   49       -0.033  -0.033   0.723   0.656
   50       -0.034  -0.040   0.722   0.649
   51       -0.029  -0.025   0.704   0.649
   52       -0.027  -0.036   0.711   0.648
   53       -0.028  -0.024   0.710   0.658
   54       -0.030  -0.037   0.720   0.653
   55       -0.029  -0.024   0.719   0.666
   56       -0.028  -0.033   0.710   0.649
   57       -0.029  -0.056   0.734   0.648
   58       -0.030  -0.053   0.709   0.626
   59       -0.025  -0.047   0.750   0.677
   60       -0.025  -0.045   0.712   0.642
   61       -0.033  -0.069   0.741   0.639
   62       -0.034  -0.071   0.754   0.649
   63       -0.031  -0.066   0.769   0.671
   64       -0.032  -0.064   0.767   0.671
--------------------------------------------------
tot         -0.923  -2.121 139.060 136.016
 
 BZINTS: Fermi energy: -0.247663;544.000000 electrons
         Band energy:***********;  BLOECHL correction: -0.023628

 total amount of memory used by VASP MPI-rank0   113629. kBytes
=======================================================================

   base      :      30000. kBytes
   nonlr-proj:      13220. kBytes
   fftplans  :       6403. kBytes
   grid      :      16455. kBytes
   one-center:         93. kBytes
   wavefun   :      47458. kBytes
 
  
  
 General timing and accounting informations for this job:
 ========================================================
  
                  Total CPU time used (sec):      599.917
                            User time (sec):      593.780
                          System time (sec):        6.137
                         Elapsed time (sec):      615.512
  
                   Maximum memory used (kb):      198304.
                   Average memory used (kb):           0.
  
                          Minor page faults:       120545
                          Major page faults:            0
                 Voluntary context switches:        10176
