       N       E                     dE             d eps       ncg     rms          rms(c)
DAV:   1     0.461893943211E+04    0.46189E+04   -0.26726E+05  8280   0.162E+03
DAV:   2     0.817075623078E+02   -0.45372E+04   -0.42714E+04  8280   0.359E+02
DAV:   3    -0.354234215191E+03   -0.43594E+03   -0.37541E+03  8478   0.150E+02
DAV:   4    -0.372485039546E+03   -0.18251E+02   -0.17892E+02  8811   0.338E+01
DAV:   5    -0.372840232557E+03   -0.35519E+00   -0.35505E+00  9837   0.364E+00    0.814E-01
RMM:   6    -0.372930337710E+03   -0.90105E-01   -0.23954E-01  8557   0.118E+00    0.515E+00
RMM:   7    -0.372888817325E+03    0.41520E-01   -0.77565E-02  8928   0.661E-01    0.366E+00
RMM:   8    -0.372852852162E+03    0.35965E-01   -0.22231E-02  8930   0.315E-01    0.118E+00
RMM:   9    -0.372853746497E+03   -0.89434E-03   -0.10448E-02  8693   0.234E-01    0.110E+00
RMM:  10    -0.372850098437E+03    0.36481E-02   -0.49275E-03  8772   0.168E-01    0.487E-01
RMM:  11    -0.372850147168E+03   -0.48731E-04   -0.23181E-03  8757   0.112E-01    0.544E-01
RMM:  12    -0.372849726143E+03    0.42102E-03   -0.12956E-03  8679   0.867E-02    0.420E-01
RMM:  13    -0.372848996548E+03    0.72960E-03   -0.83379E-04  8666   0.725E-02    0.196E-01
RMM:  14    -0.372849241209E+03   -0.24466E-03   -0.53673E-04  8637   0.560E-02    0.323E-01
RMM:  15    -0.372848800299E+03    0.44091E-03   -0.37002E-04  8596   0.490E-02    0.155E-01
RMM:  16    -0.372848769825E+03    0.30473E-04   -0.15194E-04  8642   0.311E-02    0.104E-01
RMM:  17    -0.372848806983E+03   -0.37158E-04   -0.85355E-05  8580   0.231E-02    0.131E-01
RMM:  18    -0.372848788761E+03    0.18222E-04   -0.51635E-05  8578   0.189E-02    0.410E-02
RMM:  19    -0.372848840676E+03   -0.51915E-04   -0.16990E-05  8595   0.102E-02    0.458E-02
RMM:  20    -0.372848956453E+03   -0.11578E-03   -0.97622E-06  8246   0.770E-03    0.393E-02
RMM:  21    -0.372849013352E+03   -0.56899E-04   -0.55551E-06  7822   0.617E-03    0.144E-02
RMM:  22    -0.372849111716E+03   -0.98364E-04   -0.24768E-06  5602   0.382E-03    0.194E-02
RMM:  23    -0.372849269904E+03   -0.15819E-03   -0.22020E-06  5311   0.367E-03    0.110E-02
RMM:  24    -0.372849334301E+03   -0.64397E-04   -0.80183E-07  5055   0.222E-03    0.915E-03
RMM:  25    -0.372849602158E+03   -0.26786E-03   -0.25495E-06  5468   0.250E-03    0.123E-02
RMM:  26    -0.372849749890E+03   -0.14773E-03   -0.14001E-06  5140   0.240E-03    0.605E-03
RMM:  27    -0.372849942401E+03   -0.19251E-03   -0.18790E-06  5263   0.211E-03    0.110E-02
RMM:  28    -0.372850120715E+03   -0.17831E-03   -0.20130E-06  5378   0.214E-03    0.942E-03
RMM:  29    -0.372850206640E+03   -0.85925E-04   -0.80480E-07  5169   0.151E-03    0.106E-02
RMM:  30    -0.372850334857E+03   -0.12822E-03   -0.16985E-06  5343   0.155E-03    0.698E-03
RMM:  31    -0.372850382080E+03   -0.47224E-04   -0.56290E-07  5131   0.121E-03    0.588E-03
RMM:  32    -0.372850455948E+03   -0.73868E-04   -0.13275E-06  5209   0.123E-03    0.419E-03
RMM:  33    -0.372850474070E+03   -0.18122E-04   -0.44231E-07  5076   0.105E-03    0.142E-02
RMM:  34    -0.372850479093E+03   -0.50227E-05   -0.12384E-07  4915   0.762E-04    0.168E-02
RMM:  35    -0.372850482263E+03   -0.31704E-05   -0.42080E-08  4390   0.495E-04    0.144E-02
RMM:  36    -0.372850484080E+03   -0.18173E-05   -0.16896E-08  2856   0.342E-04    0.108E-02
RMM:  37    -0.372850493769E+03   -0.96887E-05   -0.36372E-07  4869   0.827E-04    0.165E-02
RMM:  38    -0.372850496229E+03   -0.24602E-05   -0.24555E-07  4892   0.111E-03    0.674E-03
RMM:  39    -0.372850496757E+03   -0.52756E-06   -0.10089E-07  4311   0.546E-04
   1 F= -.37285050E+03 E0= -.37285050E+03  d E =0.000000E+00  mag=    73.8992
