 vasp.5.4.4.18Apr17-6-g9f103f2a35 (build Sep 06 2021 19:49:22) complex          
  
 executed on             LinuxIFC date 2022.01.05  06:33:18
 running on   72 total cores
 distrk:  each k-point on   72 cores,    1 groups
 distr:  one band on NCORES_PER_BAND=  24 cores,    3 groups


--------------------------------------------------------------------------------------------------------


 INCAR:
 POTCAR:    PAW_PBE Ni 02Aug2007                  
 POTCAR:    PAW_PBE Fe 06Sep2000                  

 ----------------------------------------------------------------------------- 
|                                                                             |
|           W    W    AA    RRRRR   N    N  II  N    N   GGGG   !!!           |
|           W    W   A  A   R    R  NN   N  II  NN   N  G    G  !!!           |
|           W    W  A    A  R    R  N N  N  II  N N  N  G       !!!           |
|           W WW W  AAAAAA  RRRRR   N  N N  II  N  N N  G  GGG   !            |
|           WW  WW  A    A  R   R   N   NN  II  N   NN  G    G                |
|           W    W  A    A  R    R  N    N  II  N    N   GGGG   !!!           |
|                                                                             |
|      For optimal performance we recommend to set                            |
|        NCORE= 4 - approx SQRT( number of cores)                             |
|      NCORE specifies how many cores store one orbital (NPAR=cpu/NCORE).     |
|      This setting can  greatly improve the performance of VASP for DFT.     |
|      The default,   NCORE=1            might be grossly inefficient         |
|      on modern multi-core architectures or massively parallel machines.     |
|      Do your own testing !!!!                                               |
|      Unfortunately you need to use the default for GW and RPA calculations. |
|      (for HF NCORE is supported but not extensively tested yet)             |
|                                                                             |
 ----------------------------------------------------------------------------- 

 POTCAR:    PAW_PBE Ni 02Aug2007                  
   VRHFIN =Ni:                                                                  
   LEXCH  = PE                                                                  
   EATOM  =  1077.6739 eV,   79.2068 Ry                                         
                                                                                
   TITEL  = PAW_PBE Ni 02Aug2007                                                
   LULTRA =        F    use ultrasoft PP ?                                      
   IUNSCR =        1    unscreen: 0-lin 1-nonlin 2-no                           
   RPACOR =    2.000    partial core radius                                     
   POMASS =   58.690; ZVAL   =   10.000    mass and valenz                      
   RCORE  =    2.300    outmost cutoff radius                                   
   RWIGS  =    2.430; RWIGS  =    1.286    wigner-seitz radius (au A)           
   ENMAX  =  269.532; ENMIN  =  202.149 eV                                      
   RCLOC  =    1.201    cutoff for local pot                                    
   LCOR   =        T    correct aug charges                                     
   LPAW   =        T    paw PP                                                  
   EAUG   =  544.565                                                            
   DEXC   =    0.000                                                            
   RMAX   =    2.357    core radius for proj-oper                               
   RAUG   =    1.300    factor for augmentation sphere                          
   RDEP   =    2.390    radius for radial grids                                 
   RDEPT  =    1.838    core radius for aug-charge                              
                                                                                
   Atomic configuration                                                         
    9 entries                                                                   
     n  l   j            E        occ.                                          
     1  0  0.50     -8206.4253   2.0000                                         
     2  0  0.50      -976.1748   2.0000                                         
     2  1  1.50      -839.0571   6.0000                                         
     3  0  0.50      -105.9991   2.0000                                         
     3  1  1.50       -66.4603   6.0000                                         
     3  2  2.50        -4.6458   9.0000                                         
     4  0  0.50        -4.4926   1.0000                                         
     4  1  1.50        -4.0817   0.0000                                         
     4  3  2.50        -1.3606   0.0000                                         
   Description                                                                  
     l       E           TYP  RCUT    TYP  RCUT                                 
     2     -4.6457903     23  2.300                                             
     2     -6.0063729     23  2.300                                             
     0     -4.4925590     23  2.300                                             
     0      5.0102601     23  2.300                                             
     1     -2.7211652     23  2.300                                             
     1     16.5183231     23  2.300                                             
  local pseudopotential read in
  partial core-charges read in
  partial kinetic energy density read in
  atomic valenz-charges read in
  non local Contribution for L=           2  read in
    real space projection operators read in
  non local Contribution for L=           2  read in
    real space projection operators read in
  non local Contribution for L=           0  read in
    real space projection operators read in
  non local Contribution for L=           0  read in
    real space projection operators read in
  non local Contribution for L=           1  read in
    real space projection operators read in
  non local Contribution for L=           1  read in
    real space projection operators read in
    PAW grid and wavefunctions read in
 
   number of l-projection  operators is LMAX  =           6
   number of lm-projection operators is LMMAX =          18
 
 POTCAR:    PAW_PBE Fe 06Sep2000                  
   VRHFIN =Fe:  d7 s1                                                           
   LEXCH  = PE                                                                  
   EATOM  =   594.3153 eV,   43.6809 Ry                                         
                                                                                
   TITEL  = PAW_PBE Fe 06Sep2000                                                
   LULTRA =        F    use ultrasoft PP ?                                      
   IUNSCR =        1    unscreen: 0-lin 1-nonlin 2-no                           
   RPACOR =    2.000    partial core radius                                     
   POMASS =   55.847; ZVAL   =    8.000    mass and valenz                      
   RCORE  =    2.300    outmost cutoff radius                                   
   RWIGS  =    2.460; RWIGS  =    1.302    wigner-seitz radius (au A)           
   ENMAX  =  267.882; ENMIN  =  200.911 eV                                      
   RCLOC  =    1.701    cutoff for local pot                                    
   LCOR   =        T    correct aug charges                                     
   LPAW   =        T    paw PP                                                  
   EAUG   =  511.368                                                            
   DEXC   =    0.000                                                            
   RMAX   =    2.356    core radius for proj-oper                               
   RAUG   =    1.300    factor for augmentation sphere                          
   RDEP   =    2.442    radius for radial grids                                 
   RDEPT  =    1.890    core radius for aug-charge                              
                                                                                
   Atomic configuration                                                         
    9 entries                                                                   
     n  l   j            E        occ.                                          
     1  0  0.50     -6993.8440   2.0000                                         
     2  0  0.50      -814.6047   2.0000                                         
     2  1  1.50      -693.3689   6.0000                                         
     3  0  0.50       -89.4732   2.0000                                         
     3  1  1.50       -55.6373   6.0000                                         
     3  2  2.50        -3.8151   7.0000                                         
     4  0  0.50        -4.2551   1.0000                                         
     4  1  1.50        -3.4015   0.0000                                         
     4  3  2.50        -1.3606   0.0000                                         
   Description                                                                  
     l       E           TYP  RCUT    TYP  RCUT                                 
     2     -3.8151135     23  2.300                                             
     2     -5.1756961     23  2.300                                             
     0     -4.2550963     23  2.300                                             
     0      7.2035603     23  2.300                                             
     1     -2.7211652     23  2.300                                             
     1     18.4316424     23  2.300                                             
  local pseudopotential read in
  partial core-charges read in
  partial kinetic energy density read in
  atomic valenz-charges read in
  non local Contribution for L=           2  read in
    real space projection operators read in
  non local Contribution for L=           2  read in
    real space projection operators read in
  non local Contribution for L=           0  read in
    real space projection operators read in
  non local Contribution for L=           0  read in
    real space projection operators read in
  non local Contribution for L=           1  read in
    real space projection operators read in
  non local Contribution for L=           1  read in
    real space projection operators read in
    PAW grid and wavefunctions read in
 
   number of l-projection  operators is LMAX  =           6
   number of lm-projection operators is LMMAX =          18
 
 Optimization of the real space projectors (new method)

 maximal supplied QI-value         = 16.25
 optimisation between [QCUT,QGAM] = [ 11.54, 23.24] = [ 37.28,151.24] Ry 
 Optimized for a Real-space Cutoff    1.45 Angstroem

   l    n(q)    QCUT    max X(q) W(low)/X(q) W(high)/X(q)  e(spline) 
   2      9    11.539    60.317    0.19E-03    0.47E-04    0.16E-06
   2      9    11.539    55.921    0.19E-03    0.48E-04    0.16E-06
   0     10    11.539    51.690    0.80E-04    0.50E-04    0.24E-06
   0     10    11.539    30.015    0.73E-04    0.45E-04    0.22E-06
   1     10    11.539    18.849    0.87E-04    0.16E-03    0.71E-07
   1     10    11.539    14.624    0.73E-04    0.13E-03    0.64E-07
 Optimization of the real space projectors (new method)

 maximal supplied QI-value         = 16.25
 optimisation between [QCUT,QGAM] = [ 11.54, 23.24] = [ 37.28,151.24] Ry 
 Optimized for a Real-space Cutoff    1.53 Angstroem

   l    n(q)    QCUT    max X(q) W(low)/X(q) W(high)/X(q)  e(spline) 
   2     10    11.539    80.901    0.11E-03    0.14E-03    0.21E-06
   2     10    11.539    75.754    0.11E-03    0.14E-03    0.22E-06
   0     11    11.539    58.752    0.52E-04    0.18E-04    0.33E-06
   0     11    11.539    30.679    0.44E-04    0.16E-04    0.30E-06
   1     10    11.539    17.977    0.53E-04    0.29E-04    0.13E-06
   1     10    11.539    13.559    0.44E-04    0.25E-04    0.11E-06
  PAW_PBE Ni 02Aug2007                  :
 energy of atom  1       EATOM=-1077.6739
 kinetic energy error for atom=    0.0030 (will be added to EATOM!!)
  PAW_PBE Fe 06Sep2000                  :
 energy of atom  2       EATOM= -594.3153
 kinetic energy error for atom=    0.0026 (will be added to EATOM!!)
 
 
 POSCAR: POSCAR                                  
  positions in direct lattice
  velocities in cartesian coordinates
 exchange correlation table for  LEXCH =        8
   RHO(1)=    0.500       N(1)  =     2000
   RHO(2)=  100.500       N(2)  =     4000
 


--------------------------------------------------------------------------------------------------------


 ion  position               nearest neighbor table
   1  0.001  0.001  0.288-  41 2.47  50 2.47   8 2.48  18 2.48  47 2.49  49 2.49   5 2.50  26 2.50
                             2 2.51  33 2.51   4 2.52   6 2.52
   2  0.251  0.002  0.287-  51 2.47  11 2.48  44 2.49  41 2.49  43 2.49   9 2.50  50 2.50   1 2.51
                             3 2.51  26 2.51   6 2.51  27 2.52
   3  0.500  0.999  0.289-  43 2.46  14 2.47  64 2.48  51 2.49  17 2.50   4 2.50   2 2.51  30 2.51
                            27 2.51  45 2.51   9 2.52  12 2.52
   4  0.749  0.999  0.288-  64 2.47  16 2.47  47 2.48  48 2.50  17 2.50  30 2.50   3 2.50  33 2.51
                            18 2.51   5 2.51   1 2.52  12 2.52
   5  0.000  0.250  0.289-  60 2.45  21 2.46  16 2.47   8 2.47   1 2.50  22 2.50  52 2.51   6 2.51
                            18 2.51  12 2.51  19 2.51   4 2.51
   6  0.251  0.252  0.289-  11 2.46   8 2.48  52 2.49  56 2.50   9 2.51   5 2.51   2 2.51  22 2.51
                            55 2.52   1 2.52  53 2.53  50 2.55
   7  0.083  0.166  0.096-  50 2.47  15 2.50  40 2.50  18 2.50  54 2.50  10 2.50  46 2.51  22 2.51
                            20 2.51
   8  0.082  0.166  0.383-   5 2.47  16 2.47   1 2.48   6 2.48  21 2.49  47 2.50  41 2.50  55 2.52
                            11 2.52
   9  0.500  0.251  0.288-  59 2.46  11 2.47  56 2.48  25 2.48  14 2.49   2 2.50  53 2.50  12 2.50
                             6 2.51   3 2.52  23 2.52  51 2.54
  10  0.333  0.167  0.096-  13 2.50  56 2.50   7 2.50  24 2.51  40 2.51  42 2.51  50 2.51  54 2.52
                            51 2.52
  11  0.333  0.166  0.382-   6 2.46   9 2.47   2 2.48  14 2.49  25 2.49  41 2.50  43 2.50  55 2.52
                             8 2.52
  12  0.751  0.252  0.290-  58 2.45  16 2.47  14 2.47  59 2.48  60 2.49  23 2.50   9 2.50  19 2.51
                             5 2.51   4 2.52   3 2.52  17 2.53
  13  0.582  0.167  0.097-  51 2.48  24 2.49  42 2.50  17 2.50  10 2.50  63 2.52  59 2.52  57 2.52
                            15 2.53
  14  0.581  0.164  0.384-  12 2.47   3 2.47   9 2.49  11 2.49  43 2.49  25 2.50  64 2.50  58 2.53
                            16 2.54
  15  0.834  0.167  0.096-  20 2.49  60 2.49  18 2.49  46 2.49   7 2.50  17 2.51  63 2.51  57 2.53
                            13 2.53
  16  0.835  0.165  0.383-   5 2.47  12 2.47   4 2.47   8 2.47  47 2.49  21 2.50  64 2.51  58 2.52
                            14 2.54
  17  0.666  0.083  0.193-  60 2.47  51 2.48  59 2.49   3 2.50   4 2.50  13 2.50  45 2.50  48 2.51
                            15 2.51  63 2.51  18 2.52  12 2.53
  18  0.916  0.082  0.192-  50 2.46  60 2.47  46 2.48   1 2.48  15 2.49  49 2.50  48 2.50   7 2.50
                             4 2.51   5 2.51  22 2.51  17 2.52
  19  0.001  0.501  0.287-  29 2.48  60 2.48  27 2.49  52 2.50  39 2.50  21 2.51  12 2.51  23 2.51
                             5 2.51  26 2.51  58 2.52  61 2.53
  20  0.081  0.416  0.096-  61 2.48  15 2.49  57 2.49  22 2.50  54 2.51  28 2.51   7 2.51  31 2.52
                            60 2.53
  21  0.083  0.415  0.383-   5 2.46  52 2.47   8 2.49  16 2.50  55 2.50  32 2.51  19 2.51  58 2.51
                            29 2.52
  22  0.166  0.334  0.192-  60 2.49  54 2.49  36 2.50  20 2.50   5 2.50  50 2.50  52 2.50   7 2.51
                             6 2.51  18 2.51  56 2.52  61 2.54
  23  0.752  0.502  0.288-  38 2.47  59 2.47  53 2.48  33 2.50  58 2.50  12 2.50  26 2.50  19 2.51
                            39 2.51   9 2.52  25 2.52  62 2.54
  24  0.584  0.416  0.096-  13 2.49  62 2.49  57 2.50  10 2.51  56 2.51  34 2.51  37 2.52  54 2.53
                            59 2.54
  25  0.582  0.415  0.384-  53 2.45   9 2.48  11 2.49  14 2.50  55 2.51  58 2.51  35 2.51  23 2.52
                            38 2.53
  26  0.001  0.752  0.288-  41 2.45  29 2.46  38 2.47  49 2.50  27 2.50  23 2.50   1 2.50  33 2.51
                             2 2.51  44 2.51  19 2.51  39 2.53
  27  0.249  0.749  0.287-  32 2.47  29 2.47  43 2.48  45 2.49  19 2.49  61 2.50  26 2.50  52 2.50
                            44 2.50   3 2.51  30 2.51   2 2.52
  28  0.084  0.668  0.095-  61 2.47  39 2.50  40 2.50  37 2.50  31 2.50  42 2.50  57 2.51  44 2.51
                            20 2.51
  29  0.083  0.666  0.382-  26 2.46  27 2.47  19 2.48  32 2.49  43 2.50  38 2.50  58 2.51  41 2.52
                            21 2.52
  30  0.500  0.750  0.288-  32 2.47  64 2.48  35 2.48  48 2.49  45 2.50   4 2.50  53 2.50   3 2.51
                            52 2.51  33 2.51  27 2.51  36 2.53
  31  0.333  0.667  0.094-  61 2.47  42 2.50  54 2.50  28 2.50  63 2.50  34 2.51  36 2.52  45 2.52
                            20 2.52
  32  0.331  0.667  0.382-  52 2.45  27 2.47  30 2.47  29 2.49  43 2.49  21 2.51  55 2.52  64 2.52
                            35 2.55
  33  0.751  0.750  0.288-  53 2.47  38 2.47  35 2.48  49 2.49  47 2.49  48 2.49  23 2.50  62 2.50
                            26 2.51   4 2.51  30 2.51   1 2.51
  34  0.583  0.667  0.095-  62 2.47  36 2.50  63 2.50  46 2.51  31 2.51  37 2.51  54 2.51  24 2.51
                            48 2.53
  35  0.586  0.667  0.383-  53 2.42  33 2.48  30 2.48  38 2.49  47 2.49  64 2.51  25 2.51  55 2.52
                            32 2.55
  36  0.417  0.582  0.191-  54 2.47  22 2.50  34 2.50  62 2.50  45 2.51  56 2.51  48 2.51  61 2.51
                            31 2.52  30 2.53  52 2.53  53 2.57
  37  0.834  0.668  0.095-  62 2.47  40 2.50  57 2.50  39 2.50  28 2.50  46 2.51  49 2.51  34 2.51
                            24 2.52
  38  0.834  0.667  0.382-  23 2.47  26 2.47  33 2.47  35 2.49  29 2.50  41 2.50  47 2.51  58 2.51
                            25 2.53
  39  0.917  0.583  0.191-  57 2.49  28 2.50  19 2.50  37 2.50  61 2.50  49 2.51  23 2.51  59 2.51
                            62 2.51  44 2.51  26 2.53  60 2.56
  40  0.083  0.917  0.095-  50 2.49  44 2.49  37 2.50  28 2.50   7 2.50  10 2.51  49 2.51  46 2.51
                            42 2.52
  41  0.083  0.917  0.382-  26 2.45   1 2.47   2 2.49   8 2.50  47 2.50  11 2.50  38 2.50  43 2.51
                            29 2.52
  42  0.334  0.917  0.095-  51 2.48  13 2.50  63 2.50  31 2.50  44 2.50  28 2.50  10 2.51  45 2.51
                            40 2.52
  43  0.333  0.916  0.382-   3 2.46  27 2.48  14 2.49  32 2.49   2 2.49  29 2.50  11 2.50  41 2.51
                            64 2.52
  44  0.167  0.835  0.191-  51 2.47   2 2.49  61 2.49  49 2.49  40 2.49  42 2.50  50 2.50  27 2.50
                            26 2.51  28 2.51  39 2.51  45 2.53
  45  0.417  0.832  0.192-  61 2.47  51 2.47  27 2.49  48 2.49  30 2.50  63 2.50  17 2.50  36 2.51
                             3 2.51  42 2.51  31 2.52  44 2.53
  46  0.832  0.917  0.096-  18 2.48  48 2.49  15 2.49  63 2.50  49 2.50   7 2.51  34 2.51  37 2.51
                            40 2.51
  47  0.833  0.916  0.383-   4 2.48  16 2.49  33 2.49  35 2.49   1 2.49   8 2.50  64 2.50  41 2.50
                            38 2.51
  48  0.666  0.833  0.192-  62 2.47  33 2.49  45 2.49  46 2.49  30 2.49   4 2.50  18 2.50  63 2.50
                            17 2.51  36 2.51  49 2.52  34 2.53
  49  0.917  0.833  0.192-  62 2.46  50 2.47  33 2.49  44 2.49   1 2.49  26 2.50  18 2.50  46 2.50
                            39 2.51  40 2.51  37 2.51  48 2.52
  50  0.162  0.082  0.191-  18 2.46   7 2.47  49 2.47   1 2.47  40 2.49  44 2.50  22 2.50   2 2.50
                            10 2.51  56 2.53   6 2.55  51 2.57
  51  0.416  0.078  0.192-  44 2.47  45 2.47   2 2.47  42 2.48  17 2.48  13 2.48   3 2.49  10 2.52
                            59 2.54   9 2.54  56 2.54  50 2.57
  52  0.250  0.500  0.289-  32 2.45  21 2.47   6 2.49  19 2.50  27 2.50  22 2.50   5 2.51  30 2.51
                            36 2.53  55 2.53  53 2.55  61 2.56
  53  0.505  0.503  0.291-  35 2.42  25 2.45  33 2.47  23 2.48  30 2.50   9 2.50  55 2.52   6 2.53
                            52 2.55  56 2.56  62 2.57  36 2.57
  54  0.331  0.417  0.096-  36 2.47  22 2.49  31 2.50   7 2.50  20 2.51  34 2.51  10 2.52  56 2.53
                            24 2.53
  55  0.333  0.417  0.387-  21 2.50  25 2.51   6 2.52  11 2.52  32 2.52   8 2.52  35 2.52  53 2.52
                            52 2.53
  56  0.416  0.331  0.193-   9 2.48   6 2.50  10 2.50  24 2.51  36 2.51  59 2.51  22 2.52  50 2.53
                            54 2.53  51 2.54  53 2.56  62 2.56
  57  0.834  0.418  0.094-  20 2.49  39 2.49  24 2.50  37 2.50  28 2.51  13 2.52  15 2.53  59 2.56
                            60 2.59
  58  0.833  0.416  0.384-  12 2.45  23 2.50  29 2.51  21 2.51  25 2.51  38 2.51  19 2.52  16 2.52
                            14 2.53
  59  0.667  0.332  0.194-   9 2.46  23 2.47  12 2.48  17 2.49  60 2.51  39 2.51  56 2.51  13 2.52
                            51 2.54  24 2.54  57 2.56  62 2.57
  60  0.914  0.327  0.194-   5 2.45  18 2.47  17 2.47  19 2.48  12 2.49  22 2.49  15 2.49  59 2.51
                            20 2.53  39 2.56  57 2.59  61 2.59
  61  0.169  0.588  0.189-  45 2.47  28 2.47  31 2.47  20 2.48  44 2.49  27 2.50  39 2.50  36 2.51
                            19 2.53  22 2.54  52 2.56  60 2.59
  62  0.670  0.589  0.190-  49 2.46  48 2.47  37 2.47  34 2.47  24 2.49  33 2.50  36 2.50  39 2.51
                            23 2.54  56 2.56  59 2.57  53 2.57
  63  0.583  0.917  0.096-  46 2.50  45 2.50  42 2.50  48 2.50  31 2.50  34 2.50  17 2.51  15 2.51
                            13 2.52
  64  0.584  0.916  0.383-   4 2.47   3 2.48  30 2.48  47 2.50  14 2.50  16 2.51  35 2.51  43 2.52
                            32 2.52
 

IMPORTANT INFORMATION: All symmetrisations will be switched off!
NOSYMM: (Re-)initialisation of all symmetry stuff for point group C_1.

 
 

Automatic generation of k-mesh.
 generate k-points for:    3    3    1
Space group operators:
 irot       det(A)        alpha          n_x          n_y          n_z        tau_x        tau_y        tau_z
    1     1.000000     0.000000     1.000000     0.000000     0.000000     0.000000     0.000000     0.000000
 
 Subroutine IBZKPT returns following result:
 ===========================================
 
 Found      5 irreducible k-points:
 
 Following reciprocal coordinates:
            Coordinates               Weight
  0.000000  0.000000  0.000000      1.000000
  0.333333  0.000000  0.000000      2.000000
  0.000000  0.333333  0.000000      2.000000
  0.333333  0.333333  0.000000      2.000000
 -0.333333  0.333333  0.000000      2.000000
 
 Following cartesian coordinates:
            Coordinates               Weight
  0.000000  0.000000  0.000000      1.000000
  0.033244  0.019194  0.000000      2.000000
  0.000000  0.038387  0.000000      2.000000
  0.033244  0.057581  0.000000      2.000000
 -0.033244  0.019194  0.000000      2.000000
 
 TETIRR: Found     24 inequivalent tetrahedra from       54


--------------------------------------------------------------------------------------------------------




 Dimension of arrays:
   k-points           NKPTS =      5   k-points in BZ     NKDIM =      5   number of bands    NBANDS=    414
   number of dos      NEDOS =    301   number of ions     NIONS =     64
   non local maximal  LDIM  =      6   non local SUM 2l+1 LMDIM =     18
   total plane-waves  NPLWV = ******
   max r-space proj   IRMAX =   8439   max aug-charges    IRDMAX=  19969
   dimension x,y,z NGX =    80 NGY =   80 NGZ =  160
   dimension x,y,z NGXF=   160 NGYF=  160 NGZF=  320
   support grid    NGXF=   160 NGYF=  160 NGZF=  320
   ions per type =              49  15
   NGX,Y,Z   is equivalent  to a cutoff of  13.26, 13.26, 12.55 a.u.
   NGXF,Y,Z  is equivalent  to a cutoff of  26.53, 26.53, 25.11 a.u.

 SYSTEM =  SQS-NiFe                                
 POSCAR =  POSCAR                                  

 Startparameter for this run:
   NWRITE =      2    write-flag & timer
   PREC   = accura    normal or accurate (medium, high low for compatibility)
   ISTART =      0    job   : 0-new  1-cont  2-samecut
   ICHARG =      1    charge: 1-file 2-atom 10-const
   ISPIN  =      2    spin polarized calculation?
   LNONCOLLINEAR =      F non collinear calculations
   LSORBIT =      F    spin-orbit coupling
   INIWAV =      1    electr: 0-lowe 1-rand  2-diag
   LASPH  =      F    aspherical Exc in radial PAW
   METAGGA=      F    non-selfconsistent MetaGGA calc.

 Electronic Relaxation 1
   ENCUT  =  520.0 eV  38.22 Ry    6.18 a.u.  18.64 18.64 39.40*2*pi/ulx,y,z
   ENINI  =  520.0     initial cutoff
   ENAUG  =  544.6 eV  augmentation charge cutoff
   NELM   =    200;   NELMIN=  2; NELMDL= -5     # of ELM steps 
   EDIFF  = 0.1E-05   stopping-criterion for ELM
   LREAL  =      T    real-space projection
   NLSPLINE    = F    spline interpolate recip. space projectors
   LCOMPAT=      F    compatible to vasp.4.4
   GGA_COMPAT  = T    GGA compatible to vasp.4.4-vasp.4.6
   LMAXPAW     = -100 max onsite density
   LMAXMIX     =    2 max onsite mixed and CHGCAR
   VOSKOWN=      0    Vosko Wilk Nusair interpolation
   ROPT   =   -0.00025  -0.00025
 Ionic relaxation
   EDIFFG = -.2E-01   stopping-criterion for IOM
   NSW    =      0    number of steps for IOM
   NBLOCK =      1;   KBLOCK =      1    inner block; outer block 
   IBRION =     -1    ionic relax: 0-MD 1-quasi-New 2-CG
   NFREE  =      0    steps in history (QN), initial steepest desc. (CG)
   ISIF   =      2    stress and relaxation
   IWAVPR =     10    prediction:  0-non 1-charg 2-wave 3-comb
   ISYM   =      0    0-nonsym 1-usesym 2-fastsym
   LCORR  =      T    Harris-Foulkes like correction to forces

   POTIM  = 0.5000    time-step for ionic-motion
   TEIN   =    0.0    initial temperature
   TEBEG  =    0.0;   TEEND  =   0.0 temperature during run
   SMASS  =  -3.00    Nose mass-parameter (am)
   estimated Nose-frequenzy (Omega)   =  0.10E-29 period in steps =****** mass=  -0.230E-26a.u.
   SCALEE = 1.0000    scale energy and forces
   NPACO  =    256;   APACO  = 16.0  distance and # of slots for P.C.
   PSTRESS=    0.0 pullay stress

  Mass of Ions in am
   POMASS =  58.69 55.85
  Ionic Valenz
   ZVAL   =  10.00  8.00
  Atomic Wigner-Seitz radii
   RWIGS  =  -1.00 -1.00
  virtual crystal weights 
   VCA    =   1.00  1.00
   NELECT =     610.0000    total number of electrons
   NUPDOWN=      -1.0000    fix difference up-down

 DOS related values:
   EMIN   =  10.00;   EMAX   =-10.00  energy-range for DOS
   EFERMI =   0.00
   ISMEAR =    -5;   SIGMA  =   0.20  broadening in eV -4-tet -1-fermi 0-gaus

 Electronic relaxation 2 (details)
   IALGO  =     68    algorithm
   LDIAG  =      T    sub-space diagonalisation (order eigenvalues)
   LSUBROT=      F    optimize rotation matrix (better conditioning)
   TURBO    =      0    0=normal 1=particle mesh
   IRESTART =      0    0=no restart 2=restart with 2 vectors
   NREBOOT  =      0    no. of reboots
   NMIN     =      0    reboot dimension
   EREF     =   0.00    reference energy to select bands
   IMIX   =      4    mixing-type and parameters
     AMIX     =   0.40;   BMIX     =  1.00
     AMIX_MAG =   1.60;   BMIX_MAG =  1.00
     AMIN     =   0.10
     WC   =   100.;   INIMIX=   1;  MIXPRE=   1;  MAXMIX= -45

 Intra band minimization:
   WEIMIN = 0.0000     energy-eigenvalue tresh-hold
   EBREAK =  0.60E-09  absolut break condition
   DEPER  =   0.30     relativ break condition  

   TIME   =   0.40     timestep for ELM

  volume/ion in A,a.u.               =      28.83       194.53
  Fermi-wavevector in a.u.,A,eV,Ry     =   1.132042  2.139249 17.436121  1.281519
  Thomas-Fermi vector in A             =   2.268742
 
 Write flags
   LWAVE        =      F    write WAVECAR
   LDOWNSAMPLE  =      F    k-point downsampling of WAVECAR
   LCHARG       =      T    write CHGCAR
   LVTOT        =      F    write LOCPOT, total local potential
   LVHAR        =      F    write LOCPOT, Hartree potential only
   LELF         =      F    write electronic localiz. function (ELF)
   LORBIT       =     11    0 simple, 1 ext, 2 COOP (PROOUT), +10 PAW based schemes


 Dipole corrections
   LMONO  =      F    monopole corrections only (constant potential shift)
   LDIPOL =      T    correct potential (dipole corrections)
   IDIPOL =      3    1-x, 2-y, 3-z, 4-all directions 
   EPSILON=  1.0000000 bulk dielectric constant

 Exchange correlation treatment:
   GGA     =    --    GGA type
   LEXCH   =     8    internal setting for exchange type
   VOSKOWN=      0    Vosko Wilk Nusair interpolation
   LHFCALC =     F    Hartree Fock is set to
   LHFONE  =     F    Hartree Fock one center treatment
   AEXX    =    0.0000 exact exchange contribution

 Linear response parameters
   LEPSILON=     F    determine dielectric tensor
   LRPA    =     F    only Hartree local field effects (RPA)
   LNABLA  =     F    use nabla operator in PAW spheres
   LVEL    =     F    velocity operator in full k-point grid
   LINTERFAST=   F  fast interpolation
   KINTER  =     0    interpolate to denser k-point grid
   CSHIFT  =0.1000    complex shift for real part using Kramers Kronig
   OMEGAMAX=  -1.0    maximum frequency
   DEG_THRESHOLD= 0.2000000E-02 threshold for treating states as degnerate
   RTIME   =   -0.100 relaxation time in fs
  (WPLASMAI=    0.000 imaginary part of plasma frequency in eV, 0.658/RTIME)
   DFIELD  = 0.0000000 0.0000000 0.0000000 field for delta impulse in time
 
 Orbital magnetization related:
   ORBITALMAG=     F  switch on orbital magnetization
   LCHIMAG   =     F  perturbation theory with respect to B field
   DQ        =  0.001000  dq finite difference perturbation B field
   LLRAUG    =     F  two centre corrections for induced B field



--------------------------------------------------------------------------------------------------------


 Static calculation
 charge density and potential will be updated during run
 spin polarized calculation
 RMM-DIIS sequential band-by-band and
  variant of blocked Davidson during initial phase
 perform sub-space diagonalisation
    before iterative eigenvector-optimisation
 modified Broyden-mixing scheme, WC =      100.0
 initial mixing is a Kerker type mixing with AMIX =  0.4000 and BMIX =      1.0000
 Hartree-type preconditioning will be used
 using additional bands          109
 real space projection scheme for non local part
 use partial core corrections
 calculate Harris-corrections to forces 
   (improved forces if not selfconsistent)
 use gradient corrections 
 use of overlap-Matrix (Vanderbilt PP)
 Fermi weights with tetrahedron method with Bloechl corrections


--------------------------------------------------------------------------------------------------------


  energy-cutoff  :      520.00
  volume of cell :     1844.87
      direct lattice vectors                 reciprocal lattice vectors
    10.026770000  0.000000000  0.000000000     0.099733015  0.057580883  0.000000000
    -5.013385000  8.683437540  0.000000000     0.000000000  0.115161766  0.000000000
     0.000000000  0.000000000 21.189179560     0.000000000  0.000000000  0.047193899

  length of vectors
    10.026770000 10.026770002 21.189179560     0.115161766  0.115161766  0.047193899


 
 k-points in units of 2pi/SCALE and weight: read from INCAR                         
   0.00000000  0.00000000  0.00000000       0.111
   0.03324434  0.01919363  0.00000000       0.222
   0.00000000  0.03838726  0.00000000       0.222
   0.03324434  0.05758088  0.00000000       0.222
  -0.03324434  0.01919363  0.00000000       0.222
 
 k-points in reciprocal lattice and weights: read from INCAR                         
   0.00000000  0.00000000  0.00000000       0.111
   0.33333333  0.00000000  0.00000000       0.222
   0.00000000  0.33333333  0.00000000       0.222
   0.33333333  0.33333333  0.00000000       0.222
  -0.33333333  0.33333333  0.00000000       0.222
 
 position of ions in fractional coordinates (direct lattice) 
   0.00072815  0.00110125  0.28770147
   0.25088737  0.00172871  0.28686513
   0.49957130  0.99942970  0.28869328
   0.74881921  0.99936863  0.28847241
   0.00000202  0.24964383  0.28858645
   0.25146814  0.25248466  0.28909481
   0.08288200  0.16633200  0.09567643
   0.08181352  0.16565754  0.38326043
   0.50045141  0.25078939  0.28829107
   0.33293900  0.16685800  0.09574221
   0.33338363  0.16601675  0.38246619
   0.75054107  0.25158483  0.29021856
   0.58230700  0.16720100  0.09670311
   0.58066631  0.16433569  0.38372142
   0.83403200  0.16672400  0.09645071
   0.83491639  0.16524186  0.38334221
   0.66558100  0.08305500  0.19258252
   0.91639700  0.08203100  0.19204933
   0.00119720  0.50071651  0.28685804
   0.08092200  0.41609700  0.09594766
   0.08320722  0.41485200  0.38304061
   0.16611800  0.33395200  0.19207541
   0.75171707  0.50175752  0.28778736
   0.58357300  0.41617200  0.09593346
   0.58221613  0.41459128  0.38432912
   0.00125454  0.75154366  0.28831387
   0.24933650  0.74915958  0.28711970
   0.08375800  0.66810400  0.09479725
   0.08314218  0.66642538  0.38191469
   0.50010953  0.74960967  0.28836950
   0.33297400  0.66727700  0.09438780
   0.33111036  0.66661682  0.38221988
   0.75078076  0.75024851  0.28763850
   0.58298100  0.66668200  0.09450950
   0.58569293  0.66704488  0.38321334
   0.41661000  0.58200200  0.19081663
   0.83395900  0.66770600  0.09497894
   0.83360493  0.66684022  0.38243035
   0.91708300  0.58323900  0.19079431
   0.08291700  0.91685800  0.09518613
   0.08288266  0.91713884  0.38219339
   0.33420600  0.91705400  0.09538173
   0.33256195  0.91584539  0.38243669
   0.16670900  0.83524200  0.19136546
   0.41703500  0.83214900  0.19205861
   0.83233100  0.91715000  0.09633654
   0.83316701  0.91645368  0.38321989
   0.66623900  0.83337000  0.19234085
   0.91705900  0.83319500  0.19216177
   0.16168500  0.08211500  0.19130606
   0.41607500  0.07807100  0.19177260
   0.24963826  0.49980291  0.28871465
   0.50520421  0.50268721  0.29087731
   0.33134100  0.41714300  0.09577612
   0.33316698  0.41663164  0.38691571
   0.41638400  0.33144300  0.19252196
   0.83354800  0.41839000  0.09448777
   0.83340103  0.41599012  0.38391818
   0.66732400  0.33240600  0.19435479
   0.91446400  0.32695500  0.19396504
   0.16914200  0.58833400  0.18947786
   0.66961600  0.58928900  0.18986007
   0.58310400  0.91651500  0.09583494
   0.58399433  0.91624227  0.38334752
 
 position of ions in cartesian coordinates  (Angst):
   0.00178003  0.00956267  6.09615801
   2.50692323  0.01501118  6.07843668
  -0.00143936  8.67848534  6.11717372
   2.49801826  8.67795508  6.11249377
  -1.25154034  2.16776658  6.11491017
   1.25561043  2.19243478  6.12568187
  -0.00284760  1.44433353  2.02730505
  -0.01017966  1.43847692  8.12097411
   3.76060743  2.17771401  6.10865118
   2.50177938  1.44890102  2.02869888
   2.51045509  1.44159611  8.10414480
   6.26421108  2.18462119  6.14949326
   5.00041537  1.45187944  2.04905956
   4.99832945  1.42699871  8.13074201
   7.52679544  1.44773744  2.04371141
   7.54309355  1.43486737  8.12270700
   6.25724091  0.72120290  4.08066560
   8.77724896  0.71231106  4.06936774
  -2.49828061  4.34794056  6.07828650
  -1.27466818  3.61315231  2.03305220
  -1.24551318  3.60234145  8.11631635
  -0.00860297  2.89985133  4.06992035
   5.02179056  4.35698006  6.09797802
   3.76492179  3.61380357  2.03275131
   3.75924153  3.60007753  8.14361866
  -3.75519871  6.52598245  6.10913442
  -1.25578566  6.50528046  6.08383098
  -2.50964037  5.80143935  2.00867595
  -2.50739948  5.78686315  8.09245890
   1.25640137  6.50918874  6.11031311
  -0.00666279  5.79425815  2.00000004
  -0.02203931  5.78852550  8.09892574
   3.76662141  6.51473609  6.09482387
   2.50308286  5.78909151  2.00257877
   2.52845551  5.79224258  8.11997628
   1.25945255  5.05377802  4.04324784
   5.01444784  5.79798335  2.01252581
   5.01523812  5.79046544  8.10338536
   6.27137866  5.06451943  4.04277489
  -3.76517246  7.96147918  2.01691600
  -3.76692473  7.96391780  8.09836432
  -1.24653807  7.96318113  2.02106060
  -1.25696339  7.95268626  8.10351960
  -2.51583691  7.25277174  4.05487709
   0.00963071  7.22591387  4.06956437
   3.74756545  7.96401474  2.04129224
   3.75943885  7.95796830  8.12011505
   2.50222056  7.23651634  4.07554481
   5.01801235  7.23499674  4.07175025
   1.20950420  0.71304047  4.05361846
   3.78048835  0.67792465  4.06350406
  -0.00263900  4.34000733  6.11762649
   2.54540194  4.36505298  6.16345148
   1.23098154  3.62223519  2.02941740
   1.25185391  3.61779484  8.19842649
   2.51333524  2.87806459  4.07938238
   6.26024393  3.63306343  2.00211832
   6.27080181  3.61222424  8.13491125
   5.02462501  2.88642674  4.11821854
   7.52996891  2.83909332  4.10996006
  -1.25359692  5.10876154  4.01488040
   3.75975299  5.11705422  4.02297911
   1.25180714  7.95850076  2.03066375
   1.26210161  7.95613254  8.12281938
 


--------------------------------------------------------------------------------------------------------


 k-point  1 :   0.0000 0.0000 0.0000  plane waves:   49741
 k-point  2 :   0.3333 0.0000 0.0000  plane waves:   49680
 k-point  3 :   0.0000 0.3333 0.0000  plane waves:   49680
 k-point  4 :   0.3333 0.3333 0.0000  plane waves:   49662
 k-point  5 :  -0.3333 0.3333 0.0000  plane waves:   49680

 maximum and minimum number of plane-waves per node :      2099     2053

 maximum number of plane-waves:     49741
 maximum index in each direction: 
   IXMAX=   18   IYMAX=   18   IZMAX=   39
   IXMIN=  -18   IYMIN=  -18   IZMIN=  -39


 real space projection operators:
  total allocation   :      64108.27 KBytes
  max/ min on nodes  :       3239.02       2344.22


 parallel 3D FFT for wavefunctions:
    minimum data exchange during FFTs selected (reduces bandwidth)
 parallel 3D FFT for charge:
    minimum data exchange during FFTs selected (reduces bandwidth)


 total amount of memory used by VASP MPI-rank0   113099. kBytes
=======================================================================

   base      :      30000. kBytes
   nonlr-proj:      13119. kBytes
   fftplans  :       6402. kBytes
   grid      :      16455. kBytes
   one-center:         93. kBytes
   wavefun   :      47030. kBytes
 
     INWAV:  cpu time    0.0000: real time    0.0001
 Broyden mixing: mesh for mixing (old mesh)
   NGX = 37   NGY = 37   NGZ = 79
  (NGX  =160   NGY  =160   NGZ  =320)
  gives a total of 108151 points

 initial charge density was supplied:
 number of electron     610.0000107 magnetization      73.8996197
 keeping initial charge density in first step


--------------------------------------------------------------------------------------------------------


 Maximum index for non-local projection operator          764
 Maximum index for augmentation-charges         1117 (set IRDMAX)


--------------------------------------------------------------------------------------------------------


 First call to EWALD:  gamma=   0.145
 Maximum number of real-space cells 4x 4x 2
 Maximum number of reciprocal cells 2x 2x 4

    FEWALD:  cpu time    0.0030: real time    0.0026


--------------------------------------- Iteration      1(   1)  ---------------------------------------


    POTLOK:  cpu time    0.2440: real time    0.2511
    SETDIJ:  cpu time    0.0180: real time    0.0196
     EDDAV:  cpu time   24.2763: real time   24.9137
 BZINTS: Fermi energy: 11.400184;610.000000 electrons
         Band energy:3815.534489;  BLOECHL correction: -0.014096
       DOS:  cpu time    0.0450: real time    0.0451
    --------------------------------------------
      LOOP:  cpu time   24.5833: real time   25.2296

 eigenvalue-minimisations  :  8280
 total energy-change (2. order) : 0.4618939E+04  (-0.2672612E+05)
 number of electron     610.0000107 magnetization      73.8996197
 augmentation part      610.0000107 magnetization      73.8996197

 DIPCOR: dipole corrections for dipol
 direction  3 min pos   241,
 dipolmoment           0.000000      0.000000      0.011449 electrons x Angstroem
 Tr[quadrupol]     -9970.442179

 energy correction for charged system         0.000000 eV
 dipol+quadrupol energy correction           -0.000006 eV
 added-field ion interaction          0.137878 eV  (added to PSCEN)


 Free energy of the ion-electron system (eV)
  ---------------------------------------------------
  alpha Z        PSCENC =      1254.89023443
  Ewald energy   TEWEN  =    213907.57603660
  -Hartree energ DENC   =   -274157.42476438
  -exchange      EXHF   =         0.00000000
  -V(xc)+E(xc)   XCENC  =      1565.51432162
  PAW double counting   =     65358.62351479   -68846.33966147
  entropy T*S    EENTRO =         0.00000000
  eigenvalues    EBANDS =      3815.53448926
  atomic energy  EATOM  =     61720.56526127
  Solvation  Ediel_sol  =         0.00000000
  ---------------------------------------------------
  free energy    TOTEN  =      4618.93943211 eV

  energy without entropy =     4618.93943211  energy(sigma->0) =     4618.93943211


--------------------------------------------------------------------------------------------------------




--------------------------------------- Iteration      1(   2)  ---------------------------------------


     EDDAV:  cpu time   24.6802: real time   24.9008
 BZINTS: Fermi energy:  1.551250;610.000000 electrons
         Band energy:-721.697381;  BLOECHL correction: -0.008039
       DOS:  cpu time    0.0430: real time    0.0436
    --------------------------------------------
      LOOP:  cpu time   24.7232: real time   24.9443

 eigenvalue-minimisations  :  8280
 total energy-change (2. order) :-0.4537232E+04  (-0.4271417E+04)
 number of electron     610.0000107 magnetization      73.8996197
 augmentation part      610.0000107 magnetization      73.8996197

 DIPCOR: dipole corrections for dipol
 direction  3 min pos   241,
 dipolmoment           0.000000      0.000000      0.011449 electrons x Angstroem
 Tr[quadrupol]     -9970.442179

 energy correction for charged system         0.000000 eV
 dipol+quadrupol energy correction           -0.000006 eV
 added-field ion interaction          0.137878 eV  (added to PSCEN)


 Free energy of the ion-electron system (eV)
  ---------------------------------------------------
  alpha Z        PSCENC =      1254.89023443
  Ewald energy   TEWEN  =    213907.57603660
  -Hartree energ DENC   =   -274157.42476438
  -exchange      EXHF   =         0.00000000
  -V(xc)+E(xc)   XCENC  =      1565.51432162
  PAW double counting   =     65358.62351479   -68846.33966147
  entropy T*S    EENTRO =         0.00000000
  eigenvalues    EBANDS =      -721.69738055
  atomic energy  EATOM  =     61720.56526127
  Solvation  Ediel_sol  =         0.00000000
  ---------------------------------------------------
  free energy    TOTEN  =        81.70756231 eV

  energy without entropy =       81.70756231  energy(sigma->0) =       81.70756231


--------------------------------------------------------------------------------------------------------




--------------------------------------- Iteration      1(   3)  ---------------------------------------


     EDDAV:  cpu time   25.1212: real time   25.1914
 BZINTS: Fermi energy:  0.328397;610.000000 electrons
         Band energy:***********;  BLOECHL correction: -0.008047
       DOS:  cpu time    0.0450: real time    0.0450
    --------------------------------------------
      LOOP:  cpu time   25.1662: real time   25.2363

 eigenvalue-minimisations  :  8478
 total energy-change (2. order) :-0.4359418E+03  (-0.3754052E+03)
 number of electron     610.0000107 magnetization      73.8996197
 augmentation part      610.0000107 magnetization      73.8996197

 DIPCOR: dipole corrections for dipol
 direction  3 min pos   241,
 dipolmoment           0.000000      0.000000      0.011449 electrons x Angstroem
 Tr[quadrupol]     -9970.442179

 energy correction for charged system         0.000000 eV
 dipol+quadrupol energy correction           -0.000006 eV
 added-field ion interaction          0.137878 eV  (added to PSCEN)


 Free energy of the ion-electron system (eV)
  ---------------------------------------------------
  alpha Z        PSCENC =      1254.89023443
  Ewald energy   TEWEN  =    213907.57603660
  -Hartree energ DENC   =   -274157.42476438
  -exchange      EXHF   =         0.00000000
  -V(xc)+E(xc)   XCENC  =      1565.51432162
  PAW double counting   =     65358.62351479   -68846.33966147
  entropy T*S    EENTRO =         0.00000000
  eigenvalues    EBANDS =     -1157.63915805
  atomic energy  EATOM  =     61720.56526127
  Solvation  Ediel_sol  =         0.00000000
  ---------------------------------------------------
  free energy    TOTEN  =      -354.23421519 eV

  energy without entropy =     -354.23421519  energy(sigma->0) =     -354.23421519


--------------------------------------------------------------------------------------------------------




--------------------------------------- Iteration      1(   4)  ---------------------------------------


     EDDAV:  cpu time   25.5811: real time   25.6596
 BZINTS: Fermi energy:  0.297590;610.000000 electrons
         Band energy:***********;  BLOECHL correction: -0.005025
       DOS:  cpu time    0.0430: real time    0.0429
    --------------------------------------------
      LOOP:  cpu time   25.6241: real time   25.7024

 eigenvalue-minimisations  :  8811
 total energy-change (2. order) :-0.1825082E+02  (-0.1789154E+02)
 number of electron     610.0000107 magnetization      73.8996197
 augmentation part      610.0000107 magnetization      73.8996197

 DIPCOR: dipole corrections for dipol
 direction  3 min pos   241,
 dipolmoment           0.000000      0.000000      0.011449 electrons x Angstroem
 Tr[quadrupol]     -9970.442179

 energy correction for charged system         0.000000 eV
 dipol+quadrupol energy correction           -0.000006 eV
 added-field ion interaction          0.137878 eV  (added to PSCEN)


 Free energy of the ion-electron system (eV)
  ---------------------------------------------------
  alpha Z        PSCENC =      1254.89023443
  Ewald energy   TEWEN  =    213907.57603660
  -Hartree energ DENC   =   -274157.42476438
  -exchange      EXHF   =         0.00000000
  -V(xc)+E(xc)   XCENC  =      1565.51432162
  PAW double counting   =     65358.62351479   -68846.33966147
  entropy T*S    EENTRO =         0.00000000
  eigenvalues    EBANDS =     -1175.88998240
  atomic energy  EATOM  =     61720.56526127
  Solvation  Ediel_sol  =         0.00000000
  ---------------------------------------------------
  free energy    TOTEN  =      -372.48503955 eV

  energy without entropy =     -372.48503955  energy(sigma->0) =     -372.48503955


--------------------------------------------------------------------------------------------------------




--------------------------------------- Iteration      1(   5)  ---------------------------------------


     EDDAV:  cpu time   27.9647: real time   28.0346
 BZINTS: Fermi energy:  0.297140;610.000000 electrons
         Band energy:***********;  BLOECHL correction: -0.004919
       DOS:  cpu time    0.0420: real time    0.0417
    CHARGE:  cpu time    0.8029: real time    0.8051
    MIXING:  cpu time    0.0050: real time    0.0047
    --------------------------------------------
      LOOP:  cpu time   28.8146: real time   28.8861

 eigenvalue-minimisations  :  9837
 total energy-change (2. order) :-0.3551930E+00  (-0.3550546E+00)
 number of electron     610.0000107 magnetization      73.8965994
 augmentation part      365.0993979 magnetization      64.1366168

 DIPCOR: dipole corrections for dipol
 direction  3 min pos   241,
 dipolmoment           0.000000      0.000000      0.011449 electrons x Angstroem
 Tr[quadrupol]     -9970.442179

 energy correction for charged system         0.000000 eV
 dipol+quadrupol energy correction           -0.000006 eV
 added-field ion interaction          0.137878 eV  (added to PSCEN)


 Broyden mixing:
  rms(total) = 0.81365E-01    rms(broyden)= 0.81265E-01
  rms(prec ) = 0.86205E-01
  weight for this iteration     100.00

 Free energy of the ion-electron system (eV)
  ---------------------------------------------------
  alpha Z        PSCENC =      1254.89023443
  Ewald energy   TEWEN  =    213907.57603660
  -Hartree energ DENC   =   -274157.42476438
  -exchange      EXHF   =         0.00000000
  -V(xc)+E(xc)   XCENC  =      1565.51432162
  PAW double counting   =     65358.62351479   -68846.33966147
  entropy T*S    EENTRO =         0.00000000
  eigenvalues    EBANDS =     -1176.24517541
  atomic energy  EATOM  =     61720.56526127
  Solvation  Ediel_sol  =         0.00000000
  ---------------------------------------------------
  free energy    TOTEN  =      -372.84023256 eV

  energy without entropy =     -372.84023256  energy(sigma->0) =     -372.84023256


--------------------------------------------------------------------------------------------------------




--------------------------------------- Iteration      1(   6)  ---------------------------------------


    POTLOK:  cpu time    0.2690: real time    0.2737
    SETDIJ:  cpu time    0.0190: real time    0.0186
    EDDIAG:  cpu time    3.5775: real time    3.6463
  RMM-DIIS:  cpu time   15.4267: real time   15.5512
    ORTHCH:  cpu time    0.6339: real time    0.6346
 BZINTS: Fermi energy:  0.291999;610.000000 electrons
         Band energy:***********;  BLOECHL correction: -0.005119
       DOS:  cpu time    0.0440: real time    0.0438
    CHARGE:  cpu time    0.8139: real time    0.8144
    MIXING:  cpu time    0.0060: real time    0.0046
    --------------------------------------------
      LOOP:  cpu time   20.7898: real time   20.9872

 eigenvalue-minimisations  :  8557
 total energy-change (2. order) :-0.9010515E-01  (-0.2395375E-01)
 number of electron     610.0000107 magnetization      73.8961768
 augmentation part      365.2152691 magnetization      64.0273640

 DIPCOR: dipole corrections for dipol
 direction  3 min pos   244,
 dipolmoment           0.000000      0.000000     -0.009101 electrons x Angstroem
 Tr[quadrupol]     -9970.476552

 energy correction for charged system         0.000000 eV
 dipol+quadrupol energy correction           -0.000004 eV
 added-field ion interaction         -0.217774 eV  (added to PSCEN)


 Broyden mixing:
  rms(total) = 0.51455E+00    rms(broyden)= 0.51452E+00
  rms(prec ) = 0.59578E+00
  weight for this iteration     100.00

 eigenvalues of (default mixing * dielectric matrix)
  average eigenvalue GAMMA=   0.1205
  0.1205

 Free energy of the ion-electron system (eV)
  ---------------------------------------------------
  alpha Z        PSCENC =      1254.53458412
  Ewald energy   TEWEN  =    213907.57603660
  -Hartree energ DENC   =   -274157.24156077
  -exchange      EXHF   =         0.00000000
  -V(xc)+E(xc)   XCENC  =      1565.43446152
  PAW double counting   =     65417.21197577   -68904.57136769
  entropy T*S    EENTRO =         0.00000000
  eigenvalues    EBANDS =     -1176.43972853
  atomic energy  EATOM  =     61720.56526127
  Solvation  Ediel_sol  =         0.00000000
  ---------------------------------------------------
  free energy    TOTEN  =      -372.93033771 eV

  energy without entropy =     -372.93033771  energy(sigma->0) =     -372.93033771


--------------------------------------------------------------------------------------------------------




--------------------------------------- Iteration      1(   7)  ---------------------------------------


    POTLOK:  cpu time    0.2440: real time    0.2453
    SETDIJ:  cpu time    0.0190: real time    0.0187
    EDDIAG:  cpu time    3.6574: real time    3.6651
  RMM-DIIS:  cpu time   16.1375: real time   16.1650
    ORTHCH:  cpu time    0.6299: real time    0.6313
 BZINTS: Fermi energy:  0.296012;610.000000 electrons
         Band energy:***********;  BLOECHL correction: -0.005037
       DOS:  cpu time    0.0420: real time    0.0411
    CHARGE:  cpu time    0.7959: real time    0.7960
    MIXING:  cpu time    0.0040: real time    0.0045
    --------------------------------------------
      LOOP:  cpu time   21.5297: real time   21.5670

 eigenvalue-minimisations  :  8928
 total energy-change (2. order) : 0.4152039E-01  (-0.7756514E-02)
 number of electron     610.0000106 magnetization      73.8963168
 augmentation part      365.0670431 magnetization      64.0950167

 DIPCOR: dipole corrections for dipol
 direction  3 min pos   242,
 dipolmoment           0.000000      0.000000      0.042925 electrons x Angstroem
 Tr[quadrupol]     -9970.426685

 energy correction for charged system         0.000000 eV
 dipol+quadrupol energy correction           -0.000090 eV
 added-field ion interaction          0.686999 eV  (added to PSCEN)


 Broyden mixing:
  rms(total) = 0.36581E+00    rms(broyden)= 0.36573E+00
  rms(prec ) = 0.48297E+00
  weight for this iteration     100.00

 eigenvalues of (default mixing * dielectric matrix)
  average eigenvalue GAMMA=   0.1138
  0.1775  0.0502

 Free energy of the ion-electron system (eV)
  ---------------------------------------------------
  alpha Z        PSCENC =      1255.43927088
  Ewald energy   TEWEN  =    213907.57603660
  -Hartree energ DENC   =   -274155.53657205
  -exchange      EXHF   =         0.00000000
  -V(xc)+E(xc)   XCENC  =      1565.51677236
  PAW double counting   =     65420.31257469   -68907.89642331
  entropy T*S    EENTRO =         0.00000000
  eigenvalues    EBANDS =     -1178.86573777
  atomic energy  EATOM  =     61720.56526127
  Solvation  Ediel_sol  =         0.00000000
  ---------------------------------------------------
  free energy    TOTEN  =      -372.88881732 eV

  energy without entropy =     -372.88881732  energy(sigma->0) =     -372.88881732


--------------------------------------------------------------------------------------------------------




--------------------------------------- Iteration      1(   8)  ---------------------------------------


    POTLOK:  cpu time    0.2520: real time    0.2540
    SETDIJ:  cpu time    0.0270: real time    0.0262
    EDDIAG:  cpu time    3.6105: real time    3.6203
  RMM-DIIS:  cpu time   16.0856: real time   16.1339
    ORTHCH:  cpu time    0.6789: real time    0.6847
 BZINTS: Fermi energy:  0.292066;610.000000 electrons
         Band energy:***********;  BLOECHL correction: -0.004030
       DOS:  cpu time    0.0400: real time    0.0400
    CHARGE:  cpu time    0.7939: real time    0.7942
    MIXING:  cpu time    0.0050: real time    0.0046
    --------------------------------------------
      LOOP:  cpu time   21.4927: real time   21.5579

 eigenvalue-minimisations  :  8930
 total energy-change (2. order) : 0.3596516E-01  (-0.2223073E-02)
 number of electron     610.0000107 magnetization      73.8960325
 augmentation part      365.0810796 magnetization      64.1041609

 DIPCOR: dipole corrections for dipol
 direction  3 min pos   239,
 dipolmoment           0.000000      0.000000      0.002749 electrons x Angstroem
 Tr[quadrupol]     -9970.383973

 energy correction for charged system         0.000000 eV
 dipol+quadrupol energy correction           -0.000000 eV
 added-field ion interaction          0.011322 eV  (added to PSCEN)


 Broyden mixing:
  rms(total) = 0.11777E+00    rms(broyden)= 0.11770E+00
  rms(prec ) = 0.14298E+00
  weight for this iteration     100.00

 eigenvalues of (default mixing * dielectric matrix)
  average eigenvalue GAMMA=   0.2092
  0.4824  0.1028  0.0422

 Free energy of the ion-electron system (eV)
  ---------------------------------------------------
  alpha Z        PSCENC =      1254.76368418
  Ewald energy   TEWEN  =    213907.57603660
  -Hartree energ DENC   =   -274154.70788853
  -exchange      EXHF   =         0.00000000
  -V(xc)+E(xc)   XCENC  =      1565.53272995
  PAW double counting   =     65421.04836196   -68908.68212297
  entropy T*S    EENTRO =         0.00000000
  eigenvalues    EBANDS =     -1178.94891462
  atomic energy  EATOM  =     61720.56526127
  Solvation  Ediel_sol  =         0.00000000
  ---------------------------------------------------
  free energy    TOTEN  =      -372.85285216 eV

  energy without entropy =     -372.85285216  energy(sigma->0) =     -372.85285216


--------------------------------------------------------------------------------------------------------




--------------------------------------- Iteration      1(   9)  ---------------------------------------


    POTLOK:  cpu time    0.2440: real time    0.2451
    SETDIJ:  cpu time    0.0210: real time    0.0198
    EDDIAG:  cpu time    3.6894: real time    3.6926
  RMM-DIIS:  cpu time   15.7066: real time   15.7290
    ORTHCH:  cpu time    0.6289: real time    0.6307
 BZINTS: Fermi energy:  0.292972;610.000000 electrons
         Band energy:***********;  BLOECHL correction: -0.004005
       DOS:  cpu time    0.0410: real time    0.0408
    CHARGE:  cpu time    0.7989: real time    0.8004
    MIXING:  cpu time    0.0060: real time    0.0047
    --------------------------------------------
      LOOP:  cpu time   21.1358: real time   21.1629

 eigenvalue-minimisations  :  8693
 total energy-change (2. order) :-0.8943350E-03  (-0.1044827E-02)
 number of electron     610.0000107 magnetization      73.8960309
 augmentation part      365.0368929 magnetization      64.1287126

 DIPCOR: dipole corrections for dipol
 direction  3 min pos   242,
 dipolmoment           0.000000      0.000000      0.013980 electrons x Angstroem
 Tr[quadrupol]     -9970.372261

 energy correction for charged system         0.000000 eV
 dipol+quadrupol energy correction           -0.000010 eV
 added-field ion interaction          0.223746 eV  (added to PSCEN)


 Broyden mixing:
  rms(total) = 0.11025E+00    rms(broyden)= 0.11025E+00
  rms(prec ) = 0.12277E+00
  weight for this iteration     100.00

 eigenvalues of (default mixing * dielectric matrix)
  average eigenvalue GAMMA=   0.2237
  0.6194  0.0413  0.1170  0.1170

 Free energy of the ion-electron system (eV)
  ---------------------------------------------------
  alpha Z        PSCENC =      1254.97609896
  Ewald energy   TEWEN  =    213907.57603660
  -Hartree energ DENC   =   -274154.68653780
  -exchange      EXHF   =         0.00000000
  -V(xc)+E(xc)   XCENC  =      1565.54982986
  PAW double counting   =     65419.51580742   -68907.24131048
  entropy T*S    EENTRO =         0.00000000
  eigenvalues    EBANDS =     -1179.10893234
  atomic energy  EATOM  =     61720.56526127
  Solvation  Ediel_sol  =         0.00000000
  ---------------------------------------------------
  free energy    TOTEN  =      -372.85374650 eV

  energy without entropy =     -372.85374650  energy(sigma->0) =     -372.85374650


--------------------------------------------------------------------------------------------------------




--------------------------------------- Iteration      1(  10)  ---------------------------------------


    POTLOK:  cpu time    0.2480: real time    0.2494
    SETDIJ:  cpu time    0.0200: real time    0.0190
    EDDIAG:  cpu time    3.6245: real time    3.6275
  RMM-DIIS:  cpu time   15.7986: real time   15.8587
    ORTHCH:  cpu time    0.6319: real time    0.6334
 BZINTS: Fermi energy:  0.291009;610.000000 electrons
         Band energy:***********;  BLOECHL correction: -0.004097
       DOS:  cpu time    0.0420: real time    0.0418
    CHARGE:  cpu time    0.8139: real time    0.8156
    MIXING:  cpu time    0.0050: real time    0.0049
    --------------------------------------------
      LOOP:  cpu time   21.1838: real time   21.2502

 eigenvalue-minimisations  :  8772
 total energy-change (2. order) : 0.3648060E-02  (-0.4927518E-03)
 number of electron     610.0000107 magnetization      73.8961175
 augmentation part      365.0697807 magnetization      64.1159734

 DIPCOR: dipole corrections for dipol
 direction  3 min pos   243,
 dipolmoment           0.000000      0.000000      0.011300 electrons x Angstroem
 Tr[quadrupol]     -9970.372004

 energy correction for charged system         0.000000 eV
 dipol+quadrupol energy correction           -0.000006 eV
 added-field ion interaction          0.225623 eV  (added to PSCEN)


 Broyden mixing:
  rms(total) = 0.48703E-01    rms(broyden)= 0.48697E-01
  rms(prec ) = 0.54211E-01
  weight for this iteration     100.00

 eigenvalues of (default mixing * dielectric matrix)
  average eigenvalue GAMMA=   0.2502
  0.6185  0.3588  0.0414  0.1361  0.0962

 Free energy of the ion-electron system (eV)
  ---------------------------------------------------
  alpha Z        PSCENC =      1254.97797894
  Ewald energy   TEWEN  =    213907.57603660
  -Hartree energ DENC   =   -274154.06670930
  -exchange      EXHF   =         0.00000000
  -V(xc)+E(xc)   XCENC  =      1565.50362050
  PAW double counting   =     65414.87123528   -68902.46178044
  entropy T*S    EENTRO =         0.00000000
  eigenvalues    EBANDS =     -1179.81574130
  atomic energy  EATOM  =     61720.56526127
  Solvation  Ediel_sol  =         0.00000000
  ---------------------------------------------------
  free energy    TOTEN  =      -372.85009844 eV

  energy without entropy =     -372.85009844  energy(sigma->0) =     -372.85009844


--------------------------------------------------------------------------------------------------------




--------------------------------------- Iteration      1(  11)  ---------------------------------------


    POTLOK:  cpu time    0.2440: real time    0.2456
    SETDIJ:  cpu time    0.0190: real time    0.0189
    EDDIAG:  cpu time    3.6484: real time    3.6631
  RMM-DIIS:  cpu time   15.7966: real time   15.8536
    ORTHCH:  cpu time    0.6369: real time    0.6371
 BZINTS: Fermi energy:  0.290140;610.000000 electrons
         Band energy:***********;  BLOECHL correction: -0.003809
       DOS:  cpu time    0.0380: real time    0.0380
    CHARGE:  cpu time    0.7919: real time    0.7919
    MIXING:  cpu time    0.0060: real time    0.0052
    --------------------------------------------
      LOOP:  cpu time   21.1808: real time   21.2534

 eigenvalue-minimisations  :  8757
 total energy-change (2. order) :-0.4873145E-04  (-0.2318114E-03)
 number of electron     610.0000107 magnetization      73.8962459
 augmentation part      365.0926268 magnetization      64.1017007

 DIPCOR: dipole corrections for dipol
 direction  3 min pos   246,
 dipolmoment           0.000000      0.000000      0.013014 electrons x Angstroem
 Tr[quadrupol]     -9970.370806

 energy correction for charged system         0.000000 eV
 dipol+quadrupol energy correction           -0.000008 eV
 added-field ion interaction          0.414536 eV  (added to PSCEN)


 Broyden mixing:
  rms(total) = 0.54439E-01    rms(broyden)= 0.54435E-01
  rms(prec ) = 0.61323E-01
  weight for this iteration     100.00

 eigenvalues of (default mixing * dielectric matrix)
  average eigenvalue GAMMA=   0.3309
  0.7953  0.7953  0.0414  0.1520  0.1055  0.0957

 Free energy of the ion-electron system (eV)
  ---------------------------------------------------
  alpha Z        PSCENC =      1255.16689076
  Ewald energy   TEWEN  =    213907.57603660
  -Hartree energ DENC   =   -274153.29462929
  -exchange      EXHF   =         0.00000000
  -V(xc)+E(xc)   XCENC  =      1565.48095347
  PAW double counting   =     65409.47270815   -68896.99665822
  entropy T*S    EENTRO =         0.00000000
  eigenvalues    EBANDS =     -1180.82070991
  atomic energy  EATOM  =     61720.56526127
  Solvation  Ediel_sol  =         0.00000000
  ---------------------------------------------------
  free energy    TOTEN  =      -372.85014717 eV

  energy without entropy =     -372.85014717  energy(sigma->0) =     -372.85014717


--------------------------------------------------------------------------------------------------------




--------------------------------------- Iteration      1(  12)  ---------------------------------------


    POTLOK:  cpu time    0.2450: real time    0.2468
    SETDIJ:  cpu time    0.0200: real time    0.0190
    EDDIAG:  cpu time    3.7484: real time    3.7501
  RMM-DIIS:  cpu time   15.7156: real time   15.7466
    ORTHCH:  cpu time    0.6329: real time    0.6333
 BZINTS: Fermi energy:  0.289649;610.000000 electrons
         Band energy:***********;  BLOECHL correction: -0.004081
       DOS:  cpu time    0.0430: real time    0.0432
    CHARGE:  cpu time    0.8079: real time    0.8074
    MIXING:  cpu time    0.0050: real time    0.0051
    --------------------------------------------
      LOOP:  cpu time   21.2178: real time   21.2515

 eigenvalue-minimisations  :  8679
 total energy-change (2. order) : 0.4210247E-03  (-0.1295560E-03)
 number of electron     610.0000107 magnetization      73.8963331
 augmentation part      365.0798562 magnetization      64.1080888

 DIPCOR: dipole corrections for dipol
 direction  3 min pos   247,
 dipolmoment           0.000000      0.000000      0.010936 electrons x Angstroem
 Tr[quadrupol]     -9970.365748

 energy correction for charged system         0.000000 eV
 dipol+quadrupol energy correction           -0.000006 eV
 added-field ion interaction          0.391659 eV  (added to PSCEN)


 Broyden mixing:
  rms(total) = 0.41965E-01    rms(broyden)= 0.41962E-01
  rms(prec ) = 0.45439E-01
  weight for this iteration     100.00

 eigenvalues of (default mixing * dielectric matrix)
  average eigenvalue GAMMA=   0.3340
  1.0258  0.7485  0.1941  0.0414  0.1219  0.1140  0.0923

 Free energy of the ion-electron system (eV)
  ---------------------------------------------------
  alpha Z        PSCENC =      1255.14401527
  Ewald energy   TEWEN  =    213907.57603660
  -Hartree energ DENC   =   -274153.19167919
  -exchange      EXHF   =         0.00000000
  -V(xc)+E(xc)   XCENC  =      1565.48568271
  PAW double counting   =     65397.17883172   -68884.77020694
  entropy T*S    EENTRO =         0.00000000
  eigenvalues    EBANDS =     -1180.83766758
  atomic energy  EATOM  =     61720.56526127
  Solvation  Ediel_sol  =         0.00000000
  ---------------------------------------------------
  free energy    TOTEN  =      -372.84972614 eV

  energy without entropy =     -372.84972614  energy(sigma->0) =     -372.84972614


--------------------------------------------------------------------------------------------------------




--------------------------------------- Iteration      1(  13)  ---------------------------------------


    POTLOK:  cpu time    0.2440: real time    0.2453
    SETDIJ:  cpu time    0.0200: real time    0.0188
    EDDIAG:  cpu time    3.7244: real time    3.7280
  RMM-DIIS:  cpu time   15.5316: real time   15.6621
    ORTHCH:  cpu time    0.6419: real time    0.6501
 BZINTS: Fermi energy:  0.289413;610.000000 electrons
         Band energy:***********;  BLOECHL correction: -0.003902
       DOS:  cpu time    0.0420: real time    0.0421
    CHARGE:  cpu time    0.8009: real time    0.8092
    MIXING:  cpu time    0.0050: real time    0.0051
    --------------------------------------------
      LOOP:  cpu time   21.0108: real time   21.1607

 eigenvalue-minimisations  :  8666
 total energy-change (2. order) : 0.7295958E-03  (-0.8337898E-04)
 number of electron     610.0000107 magnetization      73.8965413
 augmentation part      365.0712991 magnetization      64.1122852

 DIPCOR: dipole corrections for dipol
 direction  3 min pos   248,
 dipolmoment           0.000000      0.000000      0.011252 electrons x Angstroem
 Tr[quadrupol]     -9970.361414

 energy correction for charged system         0.000000 eV
 dipol+quadrupol energy correction           -0.000006 eV
 added-field ion interaction          0.447574 eV  (added to PSCEN)


 Broyden mixing:
  rms(total) = 0.19578E-01    rms(broyden)= 0.19574E-01
  rms(prec ) = 0.21482E-01
  weight for this iteration     100.00

 eigenvalues of (default mixing * dielectric matrix)
  average eigenvalue GAMMA=   0.3809
  1.1576  0.8540  0.5208  0.0414  0.1539  0.1250  0.1025  0.0923

 Free energy of the ion-electron system (eV)
  ---------------------------------------------------
  alpha Z        PSCENC =      1255.19992995
  Ewald energy   TEWEN  =    213907.57603660
  -Hartree energ DENC   =   -274153.12562693
  -exchange      EXHF   =         0.00000000
  -V(xc)+E(xc)   XCENC  =      1565.49429850
  PAW double counting   =     65391.20354073   -68878.84586820
  entropy T*S    EENTRO =         0.00000000
  eigenvalues    EBANDS =     -1180.91656847
  atomic energy  EATOM  =     61720.56526127
  Solvation  Ediel_sol  =         0.00000000
  ---------------------------------------------------
  free energy    TOTEN  =      -372.84899655 eV

  energy without entropy =     -372.84899655  energy(sigma->0) =     -372.84899655


--------------------------------------------------------------------------------------------------------




--------------------------------------- Iteration      1(  14)  ---------------------------------------


    POTLOK:  cpu time    0.2420: real time    0.2457
    SETDIJ:  cpu time    0.0190: real time    0.0188
    EDDIAG:  cpu time    3.6574: real time    3.7054
  RMM-DIIS:  cpu time   15.3517: real time   15.6824
    ORTHCH:  cpu time    0.6499: real time    0.6681
 BZINTS: Fermi energy:  0.288910;610.000000 electrons
         Band energy:***********;  BLOECHL correction: -0.003998
       DOS:  cpu time    0.0420: real time    0.0430
    CHARGE:  cpu time    0.8239: real time    0.8408
    MIXING:  cpu time    0.0060: real time    0.0056
    --------------------------------------------
      LOOP:  cpu time   20.7908: real time   21.2098

 eigenvalue-minimisations  :  8637
 total energy-change (2. order) :-0.2446612E-03  (-0.5367283E-04)
 number of electron     610.0000107 magnetization      73.8969062
 augmentation part      365.0751100 magnetization      64.1101998

 DIPCOR: dipole corrections for dipol
 direction  3 min pos   250,
 dipolmoment           0.000000      0.000000      0.011605 electrons x Angstroem
 Tr[quadrupol]     -9970.352629

 energy correction for charged system         0.000000 eV
 dipol+quadrupol energy correction           -0.000007 eV
 added-field ion interaction          0.553552 eV  (added to PSCEN)


 Broyden mixing:
  rms(total) = 0.32271E-01    rms(broyden)= 0.32270E-01
  rms(prec ) = 0.35706E-01
  weight for this iteration     100.00

 eigenvalues of (default mixing * dielectric matrix)
  average eigenvalue GAMMA=   0.4238
  1.4935  1.0320  0.6358  0.0414  0.1711  0.1313  0.1154  0.0920  0.1014

 Free energy of the ion-electron system (eV)
  ---------------------------------------------------
  alpha Z        PSCENC =      1255.30590843
  Ewald energy   TEWEN  =    213907.57603660
  -Hartree energ DENC   =   -274152.62978599
  -exchange      EXHF   =         0.00000000
  -V(xc)+E(xc)   XCENC  =      1565.48846533
  PAW double counting   =     65381.38051273   -68869.02474163
  entropy T*S    EENTRO =         0.00000000
  eigenvalues    EBANDS =     -1181.51089794
  atomic energy  EATOM  =     61720.56526127
  Solvation  Ediel_sol  =         0.00000000
  ---------------------------------------------------
  free energy    TOTEN  =      -372.84924121 eV

  energy without entropy =     -372.84924121  energy(sigma->0) =     -372.84924121


--------------------------------------------------------------------------------------------------------




--------------------------------------- Iteration      1(  15)  ---------------------------------------


    POTLOK:  cpu time    0.2420: real time    0.2489
    SETDIJ:  cpu time    0.0190: real time    0.0194
    EDDIAG:  cpu time    3.6194: real time    3.7144
  RMM-DIIS:  cpu time   15.4217: real time   15.7045
    ORTHCH:  cpu time    0.9029: real time    0.9639
 BZINTS: Fermi energy:  0.287731;610.000000 electrons
         Band energy:***********;  BLOECHL correction: -0.003960
       DOS:  cpu time    0.0410: real time    0.0418
    CHARGE:  cpu time    0.8349: real time    0.8523
    MIXING:  cpu time    0.0050: real time    0.0055
    --------------------------------------------
      LOOP:  cpu time   21.0858: real time   21.5507

 eigenvalue-minimisations  :  8596
 total energy-change (2. order) : 0.4409101E-03  (-0.3700177E-04)
 number of electron     610.0000107 magnetization      73.8970255
 augmentation part      365.0818740 magnetization      64.1080617

 DIPCOR: dipole corrections for dipol
 direction  3 min pos   251,
 dipolmoment           0.000000      0.000000      0.010903 electrons x Angstroem
 Tr[quadrupol]     -9970.347747

 energy correction for charged system         0.000000 eV
 dipol+quadrupol energy correction           -0.000006 eV
 added-field ion interaction          0.563299 eV  (added to PSCEN)


 Broyden mixing:
  rms(total) = 0.15466E-01    rms(broyden)= 0.15464E-01
  rms(prec ) = 0.16836E-01
  weight for this iteration     100.00

 eigenvalues of (default mixing * dielectric matrix)
  average eigenvalue GAMMA=   0.4237
  1.6157  1.0912  0.6453  0.2587  0.0414  0.1513  0.1336  0.0918  0.1078  0.1007

 Free energy of the ion-electron system (eV)
  ---------------------------------------------------
  alpha Z        PSCENC =      1255.31565602
  Ewald energy   TEWEN  =    213907.57603660
  -Hartree energ DENC   =   -274152.23758202
  -exchange      EXHF   =         0.00000000
  -V(xc)+E(xc)   XCENC  =      1565.47963036
  PAW double counting   =     65370.08033251   -68857.71501091
  entropy T*S    EENTRO =         0.00000000
  eigenvalues    EBANDS =     -1181.91312413
  atomic energy  EATOM  =     61720.56526127
  Solvation  Ediel_sol  =         0.00000000
  ---------------------------------------------------
  free energy    TOTEN  =      -372.84880030 eV

  energy without entropy =     -372.84880030  energy(sigma->0) =     -372.84880030


--------------------------------------------------------------------------------------------------------




--------------------------------------- Iteration      1(  16)  ---------------------------------------


    POTLOK:  cpu time    0.2420: real time    0.2457
    SETDIJ:  cpu time    0.0190: real time    0.0190
    EDDIAG:  cpu time    3.6864: real time    3.7282
  RMM-DIIS:  cpu time   15.2887: real time   15.5090
    ORTHCH:  cpu time    0.6449: real time    0.6505
 BZINTS: Fermi energy:  0.287707;610.000000 electrons
         Band energy:***********;  BLOECHL correction: -0.004011
       DOS:  cpu time    0.0410: real time    0.0419
    CHARGE:  cpu time    0.8049: real time    0.8107
    MIXING:  cpu time    0.0050: real time    0.0058
    --------------------------------------------
      LOOP:  cpu time   20.7318: real time   21.0107

 eigenvalue-minimisations  :  8642
 total energy-change (2. order) : 0.3047346E-04  (-0.1519408E-04)
 number of electron     610.0000107 magnetization      73.8972562
 augmentation part      365.0796796 magnetization      64.1088779

 DIPCOR: dipole corrections for dipol
 direction  3 min pos   252,
 dipolmoment           0.000000      0.000000      0.010876 electrons x Angstroem
 Tr[quadrupol]     -9970.348412

 energy correction for charged system         0.000000 eV
 dipol+quadrupol energy correction           -0.000006 eV
 added-field ion interaction          0.604957 eV  (added to PSCEN)


 Broyden mixing:
  rms(total) = 0.10416E-01    rms(broyden)= 0.10415E-01
  rms(prec ) = 0.11555E-01
  weight for this iteration     100.00

 eigenvalues of (default mixing * dielectric matrix)
  average eigenvalue GAMMA=   0.4718
  1.9847  1.0881  0.7796  0.5692  0.0414  0.1663  0.1434  0.1205  0.1076  0.0918
  0.0977

 Free energy of the ion-electron system (eV)
  ---------------------------------------------------
  alpha Z        PSCENC =      1255.35731416
  Ewald energy   TEWEN  =    213907.57603660
  -Hartree energ DENC   =   -274152.19908097
  -exchange      EXHF   =         0.00000000
  -V(xc)+E(xc)   XCENC  =      1565.48095609
  PAW double counting   =     65366.77074710   -68854.41733452
  entropy T*S    EENTRO =         0.00000000
  eigenvalues    EBANDS =     -1181.98266956
  atomic energy  EATOM  =     61720.56526127
  Solvation  Ediel_sol  =         0.00000000
  ---------------------------------------------------
  free energy    TOTEN  =      -372.84876983 eV

  energy without entropy =     -372.84876983  energy(sigma->0) =     -372.84876983


--------------------------------------------------------------------------------------------------------




--------------------------------------- Iteration      1(  17)  ---------------------------------------


    POTLOK:  cpu time    0.2440: real time    0.2463
    SETDIJ:  cpu time    0.0190: real time    0.0191
    EDDIAG:  cpu time    3.7714: real time    3.8114
  RMM-DIIS:  cpu time   15.2757: real time   15.5082
    ORTHCH:  cpu time    0.6309: real time    0.6388
 BZINTS: Fermi energy:  0.287484;610.000000 electrons
         Band energy:***********;  BLOECHL correction: -0.003977
       DOS:  cpu time    0.0390: real time    0.0392
    CHARGE:  cpu time    0.7849: real time    0.8035
    MIXING:  cpu time    0.0060: real time    0.0065
    --------------------------------------------
      LOOP:  cpu time   20.7708: real time   21.0729

 eigenvalue-minimisations  :  8580
 total energy-change (2. order) :-0.3715781E-04  (-0.8535504E-05)
 number of electron     610.0000107 magnetization      73.8974212
 augmentation part      365.0753711 magnetization      64.1104709

 DIPCOR: dipole corrections for dipol
 direction  3 min pos   252,
 dipolmoment           0.000000      0.000000      0.010635 electrons x Angstroem
 Tr[quadrupol]     -9970.341109

 energy correction for charged system         0.000000 eV
 dipol+quadrupol energy correction           -0.000006 eV
 added-field ion interaction          0.591565 eV  (added to PSCEN)


 Broyden mixing:
  rms(total) = 0.13072E-01    rms(broyden)= 0.13071E-01
  rms(prec ) = 0.14446E-01
  weight for this iteration     100.00

 eigenvalues of (default mixing * dielectric matrix)
  average eigenvalue GAMMA=   0.4776
  2.2050  1.1759  0.8391  0.6024  0.0414  0.1764  0.1529  0.1280  0.1180  0.0917
  0.1003  0.0997

 Free energy of the ion-electron system (eV)
  ---------------------------------------------------
  alpha Z        PSCENC =      1255.34392216
  Ewald energy   TEWEN  =    213907.57603660
  -Hartree energ DENC   =   -274151.97376027
  -exchange      EXHF   =         0.00000000
  -V(xc)+E(xc)   XCENC  =      1565.48399673
  PAW double counting   =     65361.86623782   -68849.53574466
  entropy T*S    EENTRO =         0.00000000
  eigenvalues    EBANDS =     -1182.17475664
  atomic energy  EATOM  =     61720.56526127
  Solvation  Ediel_sol  =         0.00000000
  ---------------------------------------------------
  free energy    TOTEN  =      -372.84880698 eV

  energy without entropy =     -372.84880698  energy(sigma->0) =     -372.84880698


--------------------------------------------------------------------------------------------------------




--------------------------------------- Iteration      1(  18)  ---------------------------------------


    POTLOK:  cpu time    0.2520: real time    0.2552
    SETDIJ:  cpu time    0.0190: real time    0.0191
    EDDIAG:  cpu time    3.7064: real time    3.7564
[...]
   0.488E+02 -.715E+02 0.102E+04   -.488E+02 0.714E+02 -.102E+04   -.225E-01 -.381E-01 -.386E+00   0.103E-03 0.784E-04 0.917E-02
   -.237E+01 -.617E+02 0.100E+04   0.236E+01 0.616E+02 -.100E+04   0.407E-02 0.108E+00 -.271E+00   0.112E-03 0.339E-03 0.100E-01
   -.292E+02 0.374E+02 -.877E+03   0.292E+02 -.374E+02 0.877E+03   -.943E-02 -.396E-01 0.230E+00   0.810E-03 0.324E-03 0.907E-02
   0.122E+02 -.415E+01 0.286E+04   -.124E+02 0.422E+01 -.286E+04   0.110E+00 0.755E-01 -.106E+01   -.330E-03 0.141E-03 0.265E-02
   -.214E+02 -.272E+02 -.289E+04   0.215E+02 0.272E+02 0.289E+04   -.610E-01 -.784E-03 0.968E+00   0.827E-03 0.241E-03 0.257E-02
   -.475E+02 -.602E+02 0.981E+03   0.477E+02 0.602E+02 -.981E+03   -.506E-01 -.167E-01 -.317E+00   -.101E-03 0.178E-03 0.951E-02
   0.476E+02 0.552E+02 -.885E+03   -.476E+02 -.552E+02 0.884E+03   -.173E-02 -.329E-01 0.274E+00   -.494E-03 0.503E-03 0.891E-02
   0.650E+01 0.232E+02 0.282E+04   -.657E+01 -.231E+02 -.282E+04   0.124E-01 0.112E-01 -.141E+01   0.203E-03 -.168E-05 0.251E-02
   0.205E+02 -.134E+02 -.290E+04   -.206E+02 0.134E+02 0.290E+04   0.775E-01 0.155E-01 0.103E+01   -.734E-03 0.283E-03 0.256E-02
   -.715E+01 0.414E+02 -.927E+03   0.717E+01 -.413E+02 0.927E+03   -.222E-01 -.609E-01 0.183E+00   -.543E-04 0.607E-03 0.966E-02
   -.386E+02 0.599E+02 -.896E+03   0.385E+02 -.599E+02 0.895E+03   0.900E-01 -.285E-01 0.142E+00   0.206E-03 -.292E-03 0.947E-02
   -.434E+01 0.643E+02 0.291E+04   0.441E+01 -.644E+02 -.291E+04   0.713E-01 0.168E-01 -.128E+01   -.623E-05 -.836E-03 0.245E-02
   -.452E+01 0.534E+02 -.291E+04   0.452E+01 -.535E+02 0.291E+04   0.172E-01 0.325E-01 0.100E+01   0.630E-03 0.521E-03 0.264E-02
   0.482E+01 0.913E+02 -.965E+03   -.486E+01 -.914E+02 0.965E+03   0.352E-01 0.837E-01 0.402E+00   -.104E-03 -.535E-03 0.922E-02
   -.266E+02 0.333E+02 0.292E+04   0.267E+02 -.333E+02 -.292E+04   -.236E+00 -.329E-01 -.123E+01   0.216E-03 -.247E-03 0.258E-02
   -.545E+02 0.416E+02 -.288E+04   0.546E+02 -.418E+02 0.288E+04   -.100E+00 0.138E+00 0.924E+00   -.386E-03 -.488E-03 0.245E-02
   0.406E+02 0.848E+02 -.912E+03   -.405E+02 -.847E+02 0.912E+03   -.972E-01 -.883E-01 0.159E+00   -.536E-04 0.202E-03 0.960E-02
   0.205E+02 0.512E+02 0.291E+04   -.205E+02 -.513E+02 -.291E+04   0.224E+00 0.396E-01 -.108E+01   -.457E-03 -.204E-03 0.239E-02
   0.583E+02 0.468E+02 -.290E+04   -.584E+02 -.469E+02 0.290E+04   0.108E+00 0.114E+00 0.971E+00   0.969E-04 -.147E-03 0.231E-02
   -.267E+02 0.100E+03 0.973E+03   0.269E+02 -.101E+03 -.973E+03   -.117E+00 0.144E+00 -.587E+00   -.272E-03 0.134E-04 0.947E-02
   0.107E+02 0.782E+02 0.291E+04   -.108E+02 -.783E+02 -.291E+04   -.610E-01 0.941E-02 -.124E+01   0.255E-03 -.761E-03 0.232E-02
   0.607E+00 0.595E+02 -.292E+04   -.572E+00 -.596E+02 0.292E+04   -.396E-01 0.471E-01 0.111E+01   -.348E-03 0.809E-03 0.247E-02
   0.633E+01 0.117E+03 0.104E+04   -.632E+01 -.117E+03 -.104E+04   -.743E-02 0.215E+00 -.385E+00   0.174E-03 -.465E-03 0.910E-02
   -.159E+02 -.315E+02 0.292E+04   0.159E+02 0.316E+02 -.292E+04   0.182E-01 -.151E-01 -.145E+01   0.811E-04 0.493E-04 0.243E-02
   -.121E+02 -.375E+01 -.293E+04   0.120E+02 0.380E+01 0.293E+04   0.288E-01 -.372E-01 0.146E+01   -.229E-03 0.471E-03 0.245E-02
   -.319E+02 -.352E+02 0.291E+04   0.321E+02 0.353E+02 -.291E+04   -.172E+00 -.575E-01 -.112E+01   0.463E-03 -.115E-03 0.251E-02
   -.379E+02 0.525E+01 -.292E+04   0.381E+02 -.509E+01 0.292E+04   -.184E+00 -.140E+00 0.132E+01   -.964E-03 -.620E-03 0.247E-02
   -.277E+02 -.163E+02 0.101E+04   0.277E+02 0.163E+02 -.101E+04   0.217E-01 -.553E-01 -.283E+00   0.291E-03 -.111E-03 0.100E-01
   0.627E+01 0.129E+02 0.102E+04   -.611E+01 -.129E+02 -.102E+04   -.109E+00 -.100E-01 -.302E+00   0.296E-04 -.443E-03 0.968E-02
   0.347E+02 0.299E+01 0.293E+04   -.348E+02 -.294E+01 -.293E+04   0.168E+00 -.816E-01 -.105E+01   -.518E-03 0.140E-03 0.238E-02
   0.399E+02 0.121E+02 -.294E+04   -.401E+02 -.120E+02 0.294E+04   0.172E+00 -.377E-01 0.131E+01   0.105E-02 -.117E-03 0.207E-02
   0.235E+02 0.525E+02 0.101E+04   -.236E+02 -.523E+02 -.101E+04   0.322E-01 -.150E+00 -.277E+00   -.269E-03 -.217E-03 0.987E-02
   -.171E+01 0.278E+02 0.100E+04   0.171E+01 -.278E+02 -.100E+04   -.135E-01 -.862E-02 -.257E+00   -.604E-04 0.700E-04 0.103E-01
   -.667E+02 -.766E+02 0.809E+03   0.669E+02 0.768E+02 -.809E+03   -.213E+00 -.136E+00 -.311E+00   -.692E-05 0.144E-03 0.796E-02
   0.260E+02 -.898E+02 0.808E+03   -.263E+02 0.902E+02 -.808E+03   0.234E+00 -.303E+00 -.348E+00   -.137E-03 0.382E-04 0.767E-02
   -.517E+02 0.129E+02 -.742E+03   0.520E+02 -.128E+02 0.742E+03   -.261E+00 -.573E-02 0.107E+00   -.241E-03 0.344E-03 0.751E-02
   0.428E+02 0.431E+02 -.744E+03   -.431E+02 -.431E+02 0.744E+03   0.270E+00 0.381E-01 0.265E+00   -.140E-04 0.450E-03 0.734E-02
   -.293E+02 0.126E+02 0.230E+04   0.293E+02 -.126E+02 -.229E+04   0.205E-01 -.272E-01 -.256E+01   -.658E-04 0.115E-03 0.193E-02
   -.325E+01 -.268E+02 -.233E+04   0.327E+01 0.269E+02 0.232E+04   -.256E-01 -.151E+00 0.309E+01   -.308E-03 0.159E-04 0.183E-02
   -.249E+02 -.224E+02 0.780E+03   0.252E+02 0.222E+02 -.780E+03   -.295E+00 0.119E+00 -.312E+00   -.104E-03 0.359E-04 0.743E-02
   0.114E+02 0.324E+02 0.230E+04   -.113E+02 -.325E+02 -.229E+04   -.677E-01 0.792E-01 -.285E+01   0.152E-03 -.839E-04 0.180E-02
   0.251E+01 0.989E+00 -.235E+04   -.255E+01 -.105E+01 0.234E+04   0.296E-01 0.604E-01 0.277E+01   0.244E-03 0.502E-03 0.202E-02
   0.358E+02 -.216E+02 0.795E+03   -.358E+02 0.215E+02 -.795E+03   0.308E-01 0.971E-01 -.279E+00   0.172E-03 0.170E-03 0.725E-02
   0.329E+02 -.598E+02 0.798E+03   -.332E+02 0.598E+02 -.798E+03   0.298E+00 -.211E-01 -.235E+00   0.253E-04 0.150E-03 0.727E-02
   -.126E+02 0.681E+02 0.810E+03   0.126E+02 -.680E+02 -.810E+03   -.451E-02 -.742E-01 -.345E+00   0.162E-03 -.273E-04 0.758E-02
   0.267E+02 0.114E+03 0.805E+03   -.269E+02 -.115E+03 -.805E+03   0.147E+00 0.287E+00 -.395E+00   -.807E-04 -.108E-03 0.768E-02
   0.104E+02 -.120E+02 0.235E+04   -.104E+02 0.120E+02 -.234E+04   -.178E-01 0.756E-01 -.264E+01   -.293E-04 0.185E-04 0.182E-02
   0.899E+01 0.143E+02 -.236E+04   -.895E+01 -.141E+02 0.235E+04   -.336E-01 -.119E+00 0.272E+01   0.131E-03 -.856E-03 0.182E-02
 -----------------------------------------------------------------------------------------------
   0.683E-01 0.142E+00 0.182E+01   -.551E-13 0.970E-12 -.273E-11   -.692E-01 -.140E+00 -.218E+01   0.108E-03 -.362E-03 0.360E+00
 
 
 POSITION                                       TOTAL-FORCE (eV/Angst)
 -----------------------------------------------------------------------------------
      0.00178      0.00956      6.09616         0.001015     -0.002646     -0.016626
      2.50692      0.01501      6.07844         0.018935     -0.010637     -0.031581
     -0.00144      8.67849      6.11717        -0.004283      0.005213      0.004387
      2.49802      8.67796      6.11249         0.003656     -0.004626      0.002893
     -1.25154      2.16777      6.11491         0.007047     -0.004611     -0.021840
      1.25561      2.19243      6.12568         0.003937      0.010238      0.021182
     -0.00285      1.44433      2.02731        -0.089317      0.010316      0.119521
     -0.01018      1.43848      8.12097        -0.007199     -0.009278      0.022901
      3.76061      2.17771      6.10865        -0.012051     -0.018818     -0.042606
      2.50178      1.44890      2.02870         0.135507     -0.072671      0.139288
      2.51046      1.44160      8.10414        -0.001939     -0.007814      0.009543
      6.26421      2.18462      6.14949         0.004569      0.000578     -0.036886
      5.00042      1.45188      2.04906        -0.081521      0.060740      0.151176
      4.99833      1.42700      8.13074        -0.015062     -0.006598     -0.009743
      7.52680      1.44774      2.04371         0.010161      0.002773      0.268356
      7.54309      1.43487      8.12271         0.029110     -0.023853      0.012634
      6.25724      0.72120      4.08067         0.027904     -0.062883     -0.103562
      8.77725      0.71231      4.06937        -0.013190     -0.001035     -0.083320
     -2.49828      4.34794      6.07829         0.001721      0.011650     -0.009514
     -1.27467      3.61315      2.03305        -0.040383      0.144977      0.148332
     -1.24551      3.60234      8.11632        -0.004330      0.025350      0.016131
     -0.00860      2.89985      4.06992         0.103358     -0.013892     -0.091254
      5.02179      4.35698      6.09798         0.005694      0.005709      0.004566
      3.76492      3.61380      2.03275        -0.055981      0.101583      0.054009
      3.75924      3.60008      8.14362         0.022992      0.033920      0.024990
     -3.75520      6.52598      6.10913         0.002835      0.010569      0.007348
     -1.25579      6.50528      6.08383         0.005702     -0.006995     -0.013931
     -2.50964      5.80144      2.00868         0.144563     -0.080294      0.254730
     -2.50740      5.78686      8.09246         0.015055     -0.017969      0.018634
      1.25640      6.50919      6.11031        -0.004419     -0.001503      0.021877
     -0.00666      5.79426      2.00000        -0.143631     -0.071662      0.202429
     -0.02204      5.78853      8.09893         0.007771     -0.004616      0.002911
      3.76662      6.51474      6.09482         0.005691     -0.008881     -0.025687
      2.50308      5.78909      2.00258         0.222334     -0.066266      0.206250
      2.52846      5.79224      8.11998         0.002953     -0.008167      0.000077
      1.25945      5.05378      4.04325         0.007301     -0.050012     -0.123296
      5.01445      5.79798      2.01253        -0.212194     -0.039190      0.223484
      5.01524      5.79047      8.10339        -0.004278     -0.018553      0.012447
      6.27138      5.06452      4.04277        -0.003672     -0.065283     -0.096767
     -3.76517      7.96148      2.01692         0.032757      0.067521      0.208310
     -3.76692      7.96392      8.09836        -0.002941      0.010517      0.038098
     -1.24654      7.96318      2.02106        -0.058307      0.009854      0.110021
     -1.25696      7.95269      8.10352        -0.009163      0.019567      0.010668
     -2.51584      7.25277      4.05488        -0.041767     -0.030179     -0.059096
      0.00963      7.22591      4.06956         0.058912      0.013159     -0.095594
      3.74757      7.96401      2.04129         0.098168     -0.031356      0.128204
      3.75944      7.95797      8.12012        -0.013931      0.025793      0.019018
      2.50222      7.23652      4.07554        -0.039168      0.009280     -0.110580
      5.01801      7.23500      4.07175        -0.009470      0.010598     -0.082607
      1.20950      0.71304      4.05362         0.002557      0.029310     -0.223075
      3.78049      0.67792      4.06350        -0.076667      0.022037     -0.289598
     -0.00264      4.34001      6.11763        -0.003734      0.009535      0.009240
      2.54540      4.36505      6.16345         0.012080     -0.007135      0.021571
      1.23098      3.62224      2.02942        -0.002333      0.056536      0.046527
      1.25185      3.61779      8.19843        -0.011706     -0.017952      0.006092
      2.51334      2.87806      4.07938        -0.003815     -0.051956     -0.134290
      6.26024      3.63306      2.00212         0.015081     -0.025624      0.080286
      6.27080      3.61222      8.13491        -0.008226     -0.000605      0.002349
      5.02463      2.88643      4.11822         0.033908      0.048875     -0.296584
      7.52997      2.83909      4.10996        -0.025916     -0.007989     -0.236270
     -1.25360      5.10876      4.01488         0.043549     -0.031243     -0.343513
      3.75975      5.11705      4.02298        -0.053919      0.030922     -0.262843
      1.25181      7.95850      2.03066        -0.034842      0.082082      0.206673
      1.26210      7.95613      8.12282         0.002533      0.013589      0.003509
 -----------------------------------------------------------------------------------
    total drift:                               -0.000778      0.001655     -0.003495


--------------------------------------------------------------------------------------------------------



  FREE ENERGIE OF THE ION-ELECTRON SYSTEM (eV)
  ---------------------------------------------------
  free  energy   TOTEN  =      -372.85049676 eV

  energy  without entropy=     -372.85049676  energy(sigma->0) =     -372.85049676
 


--------------------------------------------------------------------------------------------------------


    POTLOK:  cpu time    0.2770: real time    0.2800


--------------------------------------------------------------------------------------------------------


     LOOP+:  cpu time  781.1692: real time  789.5763
    4ORBIT:  cpu time    0.0000: real time    0.0000
 


 total charge     
 
# of ion       s       p       d       tot
------------------------------------------
    1        0.494   0.491   8.323   9.308
    2        0.495   0.494   8.329   9.317
    3        0.498   0.498   8.321   9.317
    4        0.493   0.492   8.317   9.301
    5        0.499   0.501   8.324   9.324
    6        0.505   0.510   8.317   9.333
    7        0.489   0.381   8.322   9.191
    8        0.490   0.381   8.318   9.189
    9        0.505   0.510   8.324   9.339
   10        0.497   0.389   8.309   9.195
   11        0.490   0.384   8.313   9.186
   12        0.502   0.507   8.328   9.337
   13        0.497   0.395   8.313   9.206
   14        0.492   0.385   8.319   9.196
   15        0.493   0.389   8.315   9.197
   16        0.493   0.390   8.318   9.201
   17        0.506   0.504   8.331   9.341
   18        0.499   0.496   8.333   9.328
   19        0.501   0.505   8.327   9.333
   20        0.501   0.392   8.313   9.207
   21        0.500   0.393   8.318   9.211
   22        0.508   0.516   8.325   9.349
   23        0.502   0.507   8.328   9.337
   24        0.503   0.393   8.311   9.207
   25        0.499   0.388   8.318   9.205
   26        0.489   0.489   8.306   9.284
   27        0.498   0.498   8.322   9.318
   28        0.492   0.383   8.315   9.190
   29        0.489   0.383   8.311   9.183
   30        0.500   0.503   8.318   9.322
   31        0.495   0.386   8.319   9.200
   32        0.497   0.395   8.316   9.209
   33        0.500   0.500   8.323   9.323
   34        0.492   0.385   8.318   9.196
   35        0.498   0.396   8.315   9.210
   36        0.506   0.507   8.326   9.339
   37        0.491   0.382   8.315   9.188
   38        0.488   0.383   8.311   9.182
   39        0.504   0.506   8.317   9.327
   40        0.484   0.371   8.315   9.169
   41        0.485   0.372   8.311   9.168
   42        0.491   0.379   8.318   9.188
   43        0.490   0.377   8.316   9.183
   44        0.501   0.501   8.325   9.327
   45        0.501   0.503   8.327   9.332
   46        0.486   0.377   8.308   9.171
   47        0.491   0.378   8.320   9.188
   48        0.497   0.497   8.319   9.313
   49        0.499   0.495   8.327   9.322
   50        0.475   0.505   6.161   7.140
   51        0.477   0.508   6.179   7.164
   52        0.471   0.505   6.178   7.154
   53        0.475   0.509   6.187   7.171
   54        0.463   0.392   6.114   6.969
   55        0.463   0.386   6.115   6.964
   56        0.474   0.507   6.205   7.186
   57        0.463   0.389   6.109   6.961
   58        0.463   0.391   6.088   6.942
   59        0.477   0.508   6.206   7.190
   60        0.474   0.506   6.176   7.156
   61        0.474   0.501   6.152   7.127
   62        0.476   0.503   6.163   7.142
   63        0.461   0.394   6.095   6.950
   64        0.466   0.398   6.094   6.958
--------------------------------------------------
tot         31.367  28.442 499.855 559.665
 


 magnetization (x)
 
# of ion       s       p       d       tot
------------------------------------------
    1       -0.010  -0.029   0.687   0.648
    2       -0.011  -0.031   0.673   0.631
    3       -0.012  -0.034   0.722   0.676
    4       -0.010  -0.033   0.716   0.674
    5       -0.009  -0.031   0.702   0.662
    6       -0.019  -0.044   0.756   0.693
    7       -0.014  -0.031   0.651   0.606
    8       -0.011  -0.027   0.655   0.617
    9       -0.014  -0.036   0.715   0.665
   10       -0.019  -0.035   0.733   0.679
   11       -0.011  -0.029   0.677   0.638
   12       -0.014  -0.039   0.703   0.651
   13       -0.018  -0.036   0.719   0.665
   14       -0.015  -0.031   0.670   0.623
   15       -0.016  -0.034   0.691   0.641
   16       -0.013  -0.031   0.678   0.634
   17       -0.017  -0.037   0.699   0.645
   18       -0.012  -0.029   0.662   0.621
   19       -0.015  -0.039   0.719   0.664
   20       -0.020  -0.033   0.725   0.672
   21       -0.017  -0.031   0.701   0.653
   22       -0.020  -0.048   0.739   0.670
   23       -0.015  -0.039   0.718   0.665
   24       -0.022  -0.034   0.741   0.685
   25       -0.019  -0.030   0.704   0.654
   26       -0.005  -0.027   0.732   0.701
   27       -0.011  -0.031   0.706   0.664
   28       -0.012  -0.030   0.691   0.649
   29       -0.012  -0.030   0.683   0.642
   30       -0.012  -0.038   0.732   0.682
   31       -0.016  -0.032   0.688   0.639
   32       -0.017  -0.035   0.703   0.652
   33       -0.011  -0.031   0.708   0.665
   34       -0.017  -0.034   0.687   0.635
   35       -0.016  -0.034   0.716   0.666
   36       -0.022  -0.046   0.722   0.655
   37       -0.013  -0.030   0.686   0.643
   38       -0.011  -0.030   0.684   0.643
   39       -0.020  -0.044   0.757   0.693
   40       -0.011  -0.024   0.670   0.635
   41       -0.009  -0.022   0.667   0.636
   42       -0.016  -0.027   0.671   0.628
   43       -0.013  -0.023   0.672   0.636
   44       -0.014  -0.034   0.711   0.663
   45       -0.014  -0.038   0.710   0.658
   46       -0.012  -0.026   0.685   0.647
   47       -0.013  -0.023   0.653   0.618
   48       -0.012  -0.037   0.717   0.668
   49       -0.011  -0.029   0.692   0.652
   50        0.005  -0.009   2.796   2.792
   51        0.003  -0.015   2.746   2.734
   52        0.004  -0.018   2.753   2.739
   53        0.001  -0.022   2.731   2.711
   54        0.015  -0.007   2.899   2.907
   55        0.012  -0.009   2.909   2.911
   56       -0.004  -0.031   2.665   2.630
   57        0.013  -0.009   2.908   2.912
   58        0.019  -0.003   2.974   2.991
   59       -0.002  -0.026   2.670   2.642
   60        0.004  -0.019   2.756   2.742
   61        0.006  -0.008   2.826   2.824
   62        0.003  -0.012   2.794   2.785
   63        0.020  -0.006   2.938   2.952
   64        0.019  -0.004   2.951   2.966
--------------------------------------------------
tot         -0.576  -1.803  76.618  74.238
 
 BZINTS: Fermi energy:  0.285812;610.000000 electrons
         Band energy:***********;  BLOECHL correction: -0.003982

 total amount of memory used by VASP MPI-rank0   113099. kBytes
=======================================================================

   base      :      30000. kBytes
   nonlr-proj:      13119. kBytes
   fftplans  :       6402. kBytes
   grid      :      16455. kBytes
   one-center:         93. kBytes
   wavefun   :      47030. kBytes
 
  
  
 General timing and accounting informations for this job:
 ========================================================
  
                  Total CPU time used (sec):      894.663
                            User time (sec):      831.773
                          System time (sec):       62.890
                         Elapsed time (sec):      913.244
  
                   Maximum memory used (kb):      160668.
                   Average memory used (kb):           0.
  
                          Minor page faults:       142366
                          Major page faults:            0
                 Voluntary context switches:         8351
