SQS-NiFe                                
           1
    10.026770    0.000000    0.000000
    -5.013385    8.683438    0.000000
     0.000000    0.000000   21.189180
   Ni   Fe
  49  15
Direct configuration=     1
   0.00072815  0.00110125  0.28770147
   0.25088737  0.00172871  0.28686513
   0.49957130  0.99942970  0.28869328
   0.74881921  0.99936863  0.28847241
   0.00000202  0.24964383  0.28858645
   0.25146814  0.25248466  0.28909481
   0.08288200  0.16633200  0.09567643
   0.08181352  0.16565754  0.38326043
   0.50045141  0.25078939  0.28829107
   0.33293900  0.16685800  0.09574221
   0.33338363  0.16601675  0.38246619
   0.75054107  0.25158483  0.29021856
   0.58230700  0.16720100  0.09670311
   0.58066631  0.16433569  0.38372142
   0.83403200  0.16672400  0.09645071
   0.83491639  0.16524186  0.38334221
   0.66558100  0.08305500  0.19258252
   0.91639700  0.08203100  0.19204933
   0.00119720  0.50071651  0.28685804
   0.08092200  0.41609700  0.09594766
   0.08320722  0.41485200  0.38304061
   0.16611800  0.33395200  0.19207541
   0.75171707  0.50175752  0.28778736
   0.58357300  0.41617200  0.09593346
   0.58221613  0.41459128  0.38432912
   0.00125454  0.75154366  0.28831387
   0.24933650  0.74915958  0.28711970
   0.08375800  0.66810400  0.09479725
   0.08314218  0.66642538  0.38191469
   0.50010953  0.74960967  0.28836950
   0.33297400  0.66727700  0.09438780
   0.33111036  0.66661682  0.38221988
   0.75078076  0.75024851  0.28763850
   0.58298100  0.66668200  0.09450950
   0.58569293  0.66704488  0.38321334
   0.41661000  0.58200200  0.19081663
   0.83395900  0.66770600  0.09497894
   0.83360493  0.66684022  0.38243035
   0.91708300  0.58323900  0.19079431
   0.08291700  0.91685800  0.09518613
   0.08288266  0.91713884  0.38219339
   0.33420600  0.91705400  0.09538173
   0.33256195  0.91584539  0.38243669
   0.16670900  0.83524200  0.19136546
   0.41703500  0.83214900  0.19205861
   0.83233100  0.91715000  0.09633654
   0.83316701  0.91645368  0.38321989
   0.66623900  0.83337000  0.19234085
   0.91705900  0.83319500  0.19216177
   0.16168500  0.08211500  0.19130606
   0.41607500  0.07807100  0.19177260
   0.24963826  0.49980291  0.28871465
   0.50520421  0.50268721  0.29087731
   0.33134100  0.41714300  0.09577612
   0.33316698  0.41663164  0.38691571
   0.41638400  0.33144300  0.19252196
   0.83354800  0.41839000  0.09448777
   0.83340103  0.41599012  0.38391818
   0.66732400  0.33240600  0.19435479
   0.91446400  0.32695500  0.19396504
   0.16914200  0.58833400  0.18947786
   0.66961600  0.58928900  0.18986007
   0.58310400  0.91651500  0.09583494
   0.58399433  0.91624227  0.38334752
