       N       E                     dE             d eps       ncg     rms          rms(c)
DAV:   1     0.505044713912E+04    0.50504E+04   -0.28135E+05 33120   0.170E+03
DAV:   2     0.208737024571E+03   -0.48417E+04   -0.45800E+04 33120   0.381E+02
DAV:   3    -0.336228034798E+03   -0.54497E+03   -0.47546E+03 34803   0.163E+02
DAV:   4    -0.400032940569E+03   -0.63805E+02   -0.56239E+02 45225   0.442E+01
DAV:   5    -0.402729692513E+03   -0.26968E+01   -0.26731E+01 35010   0.959E+00
RMM:   6    -0.402790562992E+03   -0.60870E-01   -0.60855E-01 34239   0.129E+00
RMM:   7    -0.402809998404E+03   -0.19435E-01   -0.20008E-01 50652   0.415E-01
RMM:   8    -0.402810342149E+03   -0.34374E-03   -0.83989E-03 59521   0.828E-02
RMM:   9    -0.402810642463E+03   -0.30031E-03   -0.32687E-03 54586   0.305E-02
RMM:  10    -0.402810639129E+03    0.33337E-05   -0.62441E-04 36879   0.967E-03
RMM:  11    -0.402810647774E+03   -0.86451E-05   -0.19749E-04 21588   0.490E-03
RMM:  12    -0.402810650730E+03   -0.29558E-05   -0.70993E-05 20115   0.309E-03
RMM:  13    -0.402810650255E+03    0.47486E-06   -0.14503E-05 19520   0.199E-03
RMM:  14    -0.402810650385E+03   -0.12998E-06   -0.45488E-06 18815   0.131E-03
   1 F= -.41956227E+03 E0= -.41956227E+03  d E =0.000000E+00  mag=    73.5695
