 vasp.5.4.4.18Apr17-6-g9f103f2a35 (build Dec 15 2018 21:27:11) complex          
  
 executed on             LinuxIFC date 2022.02.28  22:39:12
 running on   72 total cores
 distrk:  each k-point on   72 cores,    1 groups
 distr:  one band on NCORES_PER_BAND=  24 cores,    3 groups


--------------------------------------------------------------------------------------------------------


 INCAR:
 POTCAR:    PAW_PBE Ni 02Aug2007                  
 POTCAR:    PAW_PBE Fe 06Sep2000                  
 POTCAR:    PAW_PBE O 08Apr2002                   

 ----------------------------------------------------------------------------- 
|                                                                             |
|           W    W    AA    RRRRR   N    N  II  N    N   GGGG   !!!           |
|           W    W   A  A   R    R  NN   N  II  NN   N  G    G  !!!           |
|           W    W  A    A  R    R  N N  N  II  N N  N  G       !!!           |
|           W WW W  AAAAAA  RRRRR   N  N N  II  N  N N  G  GGG   !            |
|           WW  WW  A    A  R   R   N   NN  II  N   NN  G    G                |
|           W    W  A    A  R    R  N    N  II  N    N   GGGG   !!!           |
|                                                                             |
|      For optimal performance we recommend to set                            |
|        NCORE= 4 - approx SQRT( number of cores)                             |
|      NCORE specifies how many cores store one orbital (NPAR=cpu/NCORE).     |
|      This setting can  greatly improve the performance of VASP for DFT.     |
|      The default,   NCORE=1            might be grossly inefficient         |
|      on modern multi-core architectures or massively parallel machines.     |
|      Do your own testing !!!!                                               |
|      Unfortunately you need to use the default for GW and RPA calculations. |
|      (for HF NCORE is supported but not extensively tested yet)             |
|                                                                             |
 ----------------------------------------------------------------------------- 

 POTCAR:    PAW_PBE Ni 02Aug2007                  
   VRHFIN =Ni:                                                                  
   LEXCH  = PE                                                                  
   EATOM  =  1077.6739 eV,   79.2068 Ry                                         
                                                                                
   TITEL  = PAW_PBE Ni 02Aug2007                                                
   LULTRA =        F    use ultrasoft PP ?                                      
   IUNSCR =        1    unscreen: 0-lin 1-nonlin 2-no                           
   RPACOR =    2.000    partial core radius                                     
   POMASS =   58.690; ZVAL   =   10.000    mass and valenz                      
   RCORE  =    2.300    outmost cutoff radius                                   
   RWIGS  =    2.430; RWIGS  =    1.286    wigner-seitz radius (au A)           
   ENMAX  =  269.532; ENMIN  =  202.149 eV                                      
   RCLOC  =    1.201    cutoff for local pot                                    
   LCOR   =        T    correct aug charges                                     
   LPAW   =        T    paw PP                                                  
   EAUG   =  544.565                                                            
   DEXC   =    0.000                                                            
   RMAX   =    2.357    core radius for proj-oper                               
   RAUG   =    1.300    factor for augmentation sphere                          
   RDEP   =    2.390    radius for radial grids                                 
   RDEPT  =    1.838    core radius for aug-charge                              
                                                                                
   Atomic configuration                                                         
    9 entries                                                                   
     n  l   j            E        occ.                                          
     1  0  0.50     -8206.4253   2.0000                                         
     2  0  0.50      -976.1748   2.0000                                         
     2  1  1.50      -839.0571   6.0000                                         
     3  0  0.50      -105.9991   2.0000                                         
     3  1  1.50       -66.4603   6.0000                                         
     3  2  2.50        -4.6458   9.0000                                         
     4  0  0.50        -4.4926   1.0000                                         
     4  1  1.50        -4.0817   0.0000                                         
     4  3  2.50        -1.3606   0.0000                                         
   Description                                                                  
     l       E           TYP  RCUT    TYP  RCUT                                 
     2     -4.6457903     23  2.300                                             
     2     -6.0063729     23  2.300                                             
     0     -4.4925590     23  2.300                                             
     0      5.0102601     23  2.300                                             
     1     -2.7211652     23  2.300                                             
     1     16.5183231     23  2.300                                             
  local pseudopotential read in
  partial core-charges read in
  partial kinetic energy density read in
  atomic valenz-charges read in
  non local Contribution for L=           2  read in
    real space projection operators read in
  non local Contribution for L=           2  read in
    real space projection operators read in
  non local Contribution for L=           0  read in
    real space projection operators read in
  non local Contribution for L=           0  read in
    real space projection operators read in
  non local Contribution for L=           1  read in
    real space projection operators read in
  non local Contribution for L=           1  read in
    real space projection operators read in
    PAW grid and wavefunctions read in
 
   number of l-projection  operators is LMAX  =           6
   number of lm-projection operators is LMMAX =          18
 
 POTCAR:    PAW_PBE Fe 06Sep2000                  
   VRHFIN =Fe:  d7 s1                                                           
   LEXCH  = PE                                                                  
   EATOM  =   594.3153 eV,   43.6809 Ry                                         
                                                                                
   TITEL  = PAW_PBE Fe 06Sep2000                                                
   LULTRA =        F    use ultrasoft PP ?                                      
   IUNSCR =        1    unscreen: 0-lin 1-nonlin 2-no                           
   RPACOR =    2.000    partial core radius                                     
   POMASS =   55.847; ZVAL   =    8.000    mass and valenz                      
   RCORE  =    2.300    outmost cutoff radius                                   
   RWIGS  =    2.460; RWIGS  =    1.302    wigner-seitz radius (au A)           
   ENMAX  =  267.882; ENMIN  =  200.911 eV                                      
   RCLOC  =    1.701    cutoff for local pot                                    
   LCOR   =        T    correct aug charges                                     
   LPAW   =        T    paw PP                                                  
   EAUG   =  511.368                                                            
   DEXC   =    0.000                                                            
   RMAX   =    2.356    core radius for proj-oper                               
   RAUG   =    1.300    factor for augmentation sphere                          
   RDEP   =    2.442    radius for radial grids                                 
   RDEPT  =    1.890    core radius for aug-charge                              
                                                                                
   Atomic configuration                                                         
    9 entries                                                                   
     n  l   j            E        occ.                                          
     1  0  0.50     -6993.8440   2.0000                                         
     2  0  0.50      -814.6047   2.0000                                         
     2  1  1.50      -693.3689   6.0000                                         
     3  0  0.50       -89.4732   2.0000                                         
     3  1  1.50       -55.6373   6.0000                                         
     3  2  2.50        -3.8151   7.0000                                         
     4  0  0.50        -4.2551   1.0000                                         
     4  1  1.50        -3.4015   0.0000                                         
     4  3  2.50        -1.3606   0.0000                                         
   Description                                                                  
     l       E           TYP  RCUT    TYP  RCUT                                 
     2     -3.8151135     23  2.300                                             
     2     -5.1756961     23  2.300                                             
     0     -4.2550963     23  2.300                                             
     0      7.2035603     23  2.300                                             
     1     -2.7211652     23  2.300                                             
     1     18.4316424     23  2.300                                             
  local pseudopotential read in
  partial core-charges read in
  partial kinetic energy density read in
  atomic valenz-charges read in
  non local Contribution for L=           2  read in
    real space projection operators read in
  non local Contribution for L=           2  read in
    real space projection operators read in
  non local Contribution for L=           0  read in
    real space projection operators read in
  non local Contribution for L=           0  read in
    real space projection operators read in
  non local Contribution for L=           1  read in
    real space projection operators read in
  non local Contribution for L=           1  read in
    real space projection operators read in
    PAW grid and wavefunctions read in
 
   number of l-projection  operators is LMAX  =           6
   number of lm-projection operators is LMMAX =          18
 
 POTCAR:    PAW_PBE O 08Apr2002                   
   VRHFIN =O: s2p4                                                              
   LEXCH  = PE                                                                  
   EATOM  =   432.3788 eV,   31.7789 Ry                                         
                                                                                
   TITEL  = PAW_PBE O 08Apr2002                                                 
   LULTRA =        F    use ultrasoft PP ?                                      
   IUNSCR =        1    unscreen: 0-lin 1-nonlin 2-no                           
   RPACOR =    1.200    partial core radius                                     
   POMASS =   16.000; ZVAL   =    6.000    mass and valenz                      
   RCORE  =    1.520    outmost cutoff radius                                   
   RWIGS  =    1.550; RWIGS  =    0.820    wigner-seitz radius (au A)           
   ENMAX  =  400.000; ENMIN  =  300.000 eV                                      
   ICORE  =        2    local potential                                         
   LCOR   =        T    correct aug charges                                     
   LPAW   =        T    paw PP                                                  
   EAUG   =  605.392                                                            
   DEXC   =    0.000                                                            
   RMAX   =    1.553    core radius for proj-oper                               
   RAUG   =    1.300    factor for augmentation sphere                          
   RDEP   =    1.550    radius for radial grids                                 
   RDEPT  =    1.329    core radius for aug-charge                              
                                                                                
   Atomic configuration                                                         
    4 entries                                                                   
     n  l   j            E        occ.                                          
     1  0  0.50      -514.6923   2.0000                                         
     2  0  0.50       -23.9615   2.0000                                         
     2  1  0.50        -9.0305   4.0000                                         
     3  2  1.50        -9.5241   0.0000                                         
   Description                                                                  
     l       E           TYP  RCUT    TYP  RCUT                                 
     0    -23.9615318     23  1.200                                             
     0     -9.5240782     23  1.200                                             
     1     -9.0304911     23  1.520                                             
     1      8.1634956     23  1.520                                             
     2     -9.5240782      7  1.500                                             
  local pseudopotential read in
  partial core-charges read in
  partial kinetic energy density read in
  kinetic energy density of atom read in
  atomic valenz-charges read in
  non local Contribution for L=           0  read in
    real space projection operators read in
  non local Contribution for L=           0  read in
    real space projection operators read in
  non local Contribution for L=           1  read in
    real space projection operators read in
  non local Contribution for L=           1  read in
    real space projection operators read in
    PAW grid and wavefunctions read in
 
   number of l-projection  operators is LMAX  =           4
   number of lm-projection operators is LMMAX =           8
 
 Optimization of the real space projectors (new method)

 maximal supplied QI-value         = 16.25
 optimisation between [QCUT,QGAM] = [ 11.54, 23.24] = [ 37.28,151.24] Ry 
 Optimized for a Real-space Cutoff    1.45 Angstroem

   l    n(q)    QCUT    max X(q) W(low)/X(q) W(high)/X(q)  e(spline) 
   2      9    11.539    60.317    0.19E-03    0.47E-04    0.16E-06
   2      9    11.539    55.921    0.19E-03    0.48E-04    0.16E-06
   0     10    11.539    51.690    0.80E-04    0.50E-04    0.24E-06
   0     10    11.539    30.015    0.73E-04    0.45E-04    0.22E-06
   1     10    11.539    18.849    0.87E-04    0.16E-03    0.71E-07
   1     10    11.539    14.624    0.73E-04    0.13E-03    0.64E-07
 Optimization of the real space projectors (new method)

 maximal supplied QI-value         = 16.25
 optimisation between [QCUT,QGAM] = [ 11.54, 23.24] = [ 37.28,151.24] Ry 
 Optimized for a Real-space Cutoff    1.53 Angstroem

   l    n(q)    QCUT    max X(q) W(low)/X(q) W(high)/X(q)  e(spline) 
   2     10    11.539    80.901    0.11E-03    0.14E-03    0.21E-06
   2     10    11.539    75.754    0.11E-03    0.14E-03    0.22E-06
   0     11    11.539    58.752    0.52E-04    0.18E-04    0.33E-06
   0     11    11.539    30.679    0.44E-04    0.16E-04    0.30E-06
   1     10    11.539    17.977    0.53E-04    0.29E-04    0.13E-06
   1     10    11.539    13.559    0.44E-04    0.25E-04    0.11E-06
 Optimization of the real space projectors (new method)

 maximal supplied QI-value         = 24.76
 optimisation between [QCUT,QGAM] = [ 11.64, 23.27] = [ 37.91,151.63] Ry 
 Optimized for a Real-space Cutoff    1.14 Angstroem

   l    n(q)    QCUT    max X(q) W(low)/X(q) W(high)/X(q)  e(spline) 
   0      8    11.635    20.381    0.10E-03    0.33E-03    0.24E-06
   0      8    11.635    15.268    0.11E-03    0.35E-03    0.26E-06
   1      7    11.635     5.964    0.24E-03    0.31E-03    0.30E-06
   1      7    11.635     5.382    0.22E-03    0.25E-03    0.26E-06
  PAW_PBE Ni 02Aug2007                  :
 energy of atom  1       EATOM=-1077.6739
 kinetic energy error for atom=    0.0030 (will be added to EATOM!!)
  PAW_PBE Fe 06Sep2000                  :
 energy of atom  2       EATOM= -594.3153
 kinetic energy error for atom=    0.0026 (will be added to EATOM!!)
  PAW_PBE O 08Apr2002                   :
 energy of atom  3       EATOM= -432.3788
 kinetic energy error for atom=    0.0208 (will be added to EATOM!!)
 
 
 POSCAR: POSCAR                                  
  positions in direct lattice
  velocities in cartesian coordinates
 exchange correlation table for  LEXCH =        8
   RHO(1)=    0.500       N(1)  =     2000
   RHO(2)=  100.500       N(2)  =     4000

 VTST: version 3.2, (02/03/18)

 CHAIN: initializing optimizer
 
 OPT: Using VASP Dynamics algorithm
 CHAIN: Read ICHAIN            0
 
 POSCAR: POSCAR                                  
  positions in direct lattice
  velocities in cartesian coordinates
 


--------------------------------------------------------------------------------------------------------


 ion  position               nearest neighbor table
   1  0.999  0.000  0.288-  47 2.47  18 2.48  50 2.48   8 2.49   5 2.49  41 2.49  49 2.49  33 2.50
                             2 2.51  26 2.51   4 2.51   6 2.53
   2  0.249  0.001  0.285-  11 2.45  51 2.46  44 2.46  50 2.47  26 2.49   9 2.50   1 2.51   6 2.51
                             3 2.51  27 2.52  41 2.55  43 2.55
   3  0.499  1.000  0.288-  43 2.47  64 2.47  14 2.47  51 2.47  17 2.48  45 2.50   4 2.50  27 2.50
                             9 2.51   2 2.51  30 2.52  12 2.52
   4  0.748  0.999  0.287-  16 2.43  48 2.46  17 2.46  18 2.48  30 2.49   3 2.50  64 2.51   1 2.51
                            33 2.51   5 2.51  12 2.53  47 2.54
   5  0.999  0.249  0.287-  60 2.43  16 2.43  22 2.48  18 2.48   1 2.49  52 2.50   6 2.51   4 2.51
                            12 2.51  19 2.52  21 2.52   8 2.54
   6  0.251  0.252  0.288-  11 2.42  56 2.47  52 2.48  22 2.49   9 2.50   5 2.51   2 2.51  50 2.52
                             1 2.53  53 2.53   8 2.55  55 2.55
   7  0.083  0.166  0.096-  50 2.47  15 2.50  40 2.50  18 2.50  54 2.50  10 2.50  46 2.51  22 2.51
                            20 2.51
   8  0.080  0.161  0.385-  67 1.86  47 2.42  41 2.44   1 2.49  16 2.50  11 2.50   5 2.54   6 2.55
                            21 2.58  55 2.58
   9  0.499  0.250  0.287-  11 2.44  59 2.44  56 2.46   6 2.50   2 2.50  53 2.50  51 2.51   3 2.51
                            12 2.51  23 2.52  14 2.54  25 2.56
  10  0.333  0.167  0.096-  13 2.50  56 2.50   7 2.50  24 2.51  40 2.51  42 2.51  50 2.51  54 2.52
                            51 2.52
  11  0.332  0.167  0.379-   6 2.42   9 2.44   2 2.45  55 2.49   8 2.50  41 2.51  25 2.51  14 2.52
                            43 2.52
  12  0.750  0.252  0.288-  16 2.43  59 2.45  60 2.46  58 2.49  23 2.49  17 2.50   9 2.51  19 2.51
                             5 2.51  14 2.52   3 2.52   4 2.53
  13  0.582  0.167  0.097-  51 2.48  24 2.49  42 2.50  17 2.50  10 2.50  63 2.52  59 2.52  57 2.52
                            15 2.53
  14  0.579  0.160  0.384-  65 1.86  43 2.43  64 2.44   3 2.47  11 2.52  16 2.52  12 2.52   9 2.54
                            58 2.59  25 2.59
  15  0.834  0.167  0.096-  20 2.49  60 2.49  18 2.49  46 2.49   7 2.50  17 2.51  63 2.51  57 2.53
                            13 2.53
  16  0.832  0.164  0.379-  12 2.43   4 2.43   5 2.43  64 2.49  47 2.50   8 2.50  21 2.51  14 2.52
                            58 2.53
  17  0.666  0.083  0.193-   4 2.46  60 2.47  51 2.48   3 2.48  59 2.49  13 2.50  12 2.50  45 2.50
                            48 2.51  15 2.51  63 2.51  18 2.52
  18  0.916  0.082  0.192-  50 2.46  60 2.47   1 2.48   4 2.48  46 2.48   5 2.48  15 2.49  49 2.50
                            48 2.50   7 2.50  22 2.51  17 2.52
  19  0.002  0.501  0.286-  60 2.48  52 2.49  27 2.49  29 2.49  39 2.49  21 2.50  58 2.51  12 2.51
                            23 2.52  61 2.52   5 2.52  26 2.52
  20  0.081  0.416  0.096-  61 2.48  15 2.49  57 2.49  22 2.50  54 2.51  28 2.51   7 2.51  31 2.52
                            60 2.53
  21  0.080  0.418  0.384-  67 1.86  58 2.44  29 2.45  19 2.50  52 2.51  16 2.51  32 2.52   5 2.52
                             8 2.58  55 2.59
  22  0.166  0.334  0.192-   5 2.48  52 2.48   6 2.49  60 2.49  54 2.49  36 2.50  20 2.50  50 2.50
                             7 2.51  18 2.51  56 2.52  61 2.54
  23  0.751  0.501  0.286-  38 2.43  59 2.44  53 2.47  39 2.48  12 2.49  33 2.50  26 2.51  19 2.52
                            62 2.52   9 2.52  58 2.53  25 2.57
  24  0.584  0.416  0.096-  13 2.49  62 2.49  57 2.50  10 2.51  56 2.51  34 2.51  37 2.52  54 2.53
                            59 2.54
  25  0.581  0.419  0.386-  65 1.88  35 2.42  55 2.43  53 2.46  38 2.51  11 2.51   9 2.56  58 2.57
                            23 2.57  14 2.59
  26  0.001  0.752  0.286-  38 2.44  49 2.46  44 2.47   2 2.49  39 2.50  27 2.50  33 2.50   1 2.51
                            23 2.51  19 2.52  41 2.52  29 2.53
  27  0.250  0.750  0.286-  32 2.46  45 2.46  61 2.47  44 2.48  19 2.49  26 2.50   3 2.50  52 2.51
                            30 2.52   2 2.52  29 2.53  43 2.54
  28  0.084  0.668  0.095-  61 2.47  39 2.50  40 2.50  37 2.50  31 2.50  42 2.50  57 2.51  44 2.51
                            20 2.51
  29  0.082  0.663  0.383-  66 1.84  21 2.45  58 2.46  19 2.49  32 2.50  38 2.51  26 2.53  27 2.53
                            43 2.56  41 2.57
  30  0.501  0.750  0.287-  32 2.43  48 2.47  45 2.48   4 2.49  53 2.50  33 2.50  36 2.51  64 2.51
                             3 2.52  52 2.52  27 2.52  35 2.55
  31  0.333  0.667  0.094-  61 2.47  42 2.50  54 2.50  28 2.50  63 2.50  34 2.51  36 2.52  45 2.52
                            20 2.52
  32  0.333  0.666  0.379-  52 2.42  30 2.43  27 2.46  29 2.50  64 2.51  35 2.52  21 2.52  43 2.52
                            55 2.52
  33  0.751  0.750  0.286-  38 2.44  49 2.46  53 2.47  48 2.47  62 2.47  23 2.50  26 2.50  30 2.50
                             1 2.50   4 2.51  47 2.54  35 2.57
  34  0.583  0.667  0.095-  62 2.47  36 2.50  63 2.50  46 2.51  31 2.51  37 2.51  54 2.51  24 2.51
                            48 2.53
  35  0.581  0.661  0.385-  68 1.87  25 2.42  55 2.44  53 2.46  38 2.51  32 2.52  30 2.55  33 2.57
                            64 2.57  47 2.58
  36  0.417  0.582  0.191-  54 2.47  22 2.50  34 2.50  62 2.50  30 2.51  45 2.51  56 2.51  48 2.51
                            61 2.51  31 2.52  52 2.52  53 2.55
  37  0.834  0.668  0.095-  62 2.47  40 2.50  57 2.50  39 2.50  28 2.50  46 2.51  49 2.51  34 2.51
                            24 2.52
  38  0.834  0.666  0.379-  23 2.43  26 2.44  33 2.44  58 2.50  25 2.51  29 2.51  41 2.51  35 2.51
                            47 2.51
  39  0.917  0.583  0.191-  23 2.48  57 2.49  19 2.49  28 2.50  37 2.50  26 2.50  61 2.50  49 2.51
                            59 2.51  62 2.51  44 2.51  60 2.56
  40  0.083  0.917  0.095-  50 2.49  44 2.49  37 2.50  28 2.50   7 2.50  10 2.51  49 2.51  46 2.51
                            42 2.52
  41  0.081  0.919  0.384-  66 1.83   8 2.44  47 2.44   1 2.49  11 2.51  38 2.51  26 2.52   2 2.55
                            43 2.56  29 2.57
  42  0.334  0.917  0.095-  51 2.48  13 2.50  63 2.50  31 2.50  44 2.50  28 2.50  10 2.51  45 2.51
                            40 2.52
  43  0.337  0.919  0.384-  66 1.83  14 2.43  64 2.46   3 2.47  32 2.52  11 2.52  27 2.54   2 2.55
                            29 2.56  41 2.56
  44  0.167  0.835  0.191-   2 2.46  51 2.47  26 2.47  27 2.48  61 2.49  49 2.49  40 2.49  42 2.50
                            50 2.50  28 2.51  39 2.51  45 2.53
  45  0.417  0.832  0.192-  27 2.46  61 2.47  51 2.47  30 2.48  48 2.49  63 2.50   3 2.50  17 2.50
                            36 2.51  42 2.51  31 2.52  44 2.53
  46  0.832  0.917  0.096-  18 2.48  48 2.49  15 2.49  63 2.50  49 2.50   7 2.51  34 2.51  37 2.51
                            40 2.51
  47  0.838  0.919  0.384-  68 1.85   8 2.42  41 2.44   1 2.47  16 2.50  38 2.51  33 2.54   4 2.54
                            64 2.57  35 2.58
  48  0.666  0.833  0.192-   4 2.46  62 2.47  33 2.47  30 2.47  45 2.49  46 2.49  18 2.50  63 2.50
                            17 2.51  36 2.51  49 2.52  34 2.53
  49  0.917  0.833  0.192-  26 2.46  33 2.46  62 2.46  50 2.47   1 2.49  44 2.49  18 2.50  46 2.50
                            39 2.51  40 2.51  37 2.51  48 2.52
  50  0.162  0.082  0.191-  18 2.46   7 2.47   2 2.47  49 2.47   1 2.48  40 2.49  44 2.50  22 2.50
                            10 2.51   6 2.52  56 2.53  51 2.57
  51  0.416  0.078  0.192-   2 2.46  44 2.47  45 2.47   3 2.47  42 2.48  17 2.48  13 2.48   9 2.51
                            10 2.52  59 2.54  56 2.54  50 2.57
  52  0.249  0.499  0.288-  32 2.42   6 2.48  22 2.48  19 2.49   5 2.50  21 2.51  27 2.51  36 2.52
                            30 2.52  61 2.55  53 2.55  55 2.57
  53  0.506  0.503  0.290-  35 2.46  25 2.46  33 2.47  23 2.47  30 2.50   9 2.50   6 2.53  55 2.54
                            56 2.54  62 2.55  36 2.55  52 2.55
  54  0.331  0.417  0.096-  36 2.47  22 2.49  31 2.50   7 2.50  20 2.51  34 2.51  10 2.52  56 2.53
                            24 2.53
  55  0.337  0.417  0.387-  67 1.84  25 2.43  35 2.44  11 2.49  32 2.52  53 2.54   6 2.55  52 2.57
                             8 2.58  21 2.59
  56  0.416  0.331  0.193-   9 2.46   6 2.47  10 2.50  24 2.51  36 2.51  59 2.51  22 2.52  50 2.53
                            54 2.53  53 2.54  51 2.54  62 2.56
  57  0.834  0.418  0.094-  20 2.49  39 2.49  24 2.50  37 2.50  28 2.51  13 2.52  15 2.53  59 2.56
                            60 2.59
  58  0.837  0.419  0.384-  65 1.83  21 2.44  29 2.46  12 2.49  38 2.50  19 2.51  23 2.53  16 2.53
                            25 2.57  14 2.59
  59  0.667  0.332  0.194-  23 2.44   9 2.44  12 2.45  17 2.49  60 2.51  39 2.51  56 2.51  13 2.52
                            51 2.54  24 2.54  57 2.56  62 2.57
  60  0.914  0.327  0.194-   5 2.43  12 2.46  18 2.47  17 2.47  19 2.48  22 2.49  15 2.49  59 2.51
                            20 2.53  39 2.56  57 2.59  61 2.59
  61  0.169  0.588  0.189-  45 2.47  28 2.47  31 2.47  27 2.47  20 2.48  44 2.49  39 2.50  36 2.51
                            19 2.52  22 2.54  52 2.55  60 2.59
  62  0.670  0.589  0.190-  49 2.46  48 2.47  37 2.47  33 2.47  34 2.47  24 2.49  36 2.50  39 2.51
                            23 2.52  53 2.55  56 2.56  59 2.57
  63  0.583  0.917  0.096-  46 2.50  45 2.50  42 2.50  48 2.50  31 2.50  34 2.50  17 2.51  15 2.51
                            13 2.52
  64  0.582  0.918  0.383-  68 1.83  14 2.44  43 2.46   3 2.47  16 2.49   4 2.51  30 2.51  32 2.51
                            47 2.57  35 2.57
  65  0.670  0.332  0.437-  58 1.83  14 1.86  25 1.88
  66  0.167  0.833  0.435-  43 1.83  41 1.83  29 1.84
  67  0.164  0.332  0.437-  55 1.84  21 1.86   8 1.86
  68  0.667  0.837  0.436-  64 1.83  47 1.85  35 1.87
 

IMPORTANT INFORMATION: All symmetrisations will be switched off!
NOSYMM: (Re-)initialisation of all symmetry stuff for point group C_1.

 
 

Automatic generation of k-mesh.
 generate k-points for:    4    4    2
Space group operators:
 irot       det(A)        alpha          n_x          n_y          n_z        tau_x        tau_y        tau_z
    1     1.000000     0.000000     1.000000     0.000000     0.000000     0.000000     0.000000     0.000000
 
 Subroutine IBZKPT returns following result:
 ===========================================
 
 Found     20 irreducible k-points:
 
 Following reciprocal coordinates:
            Coordinates               Weight
  0.000000  0.000000  0.000000      1.000000
  0.250000  0.000000  0.000000      2.000000
  0.500000  0.000000  0.000000      1.000000
  0.000000  0.250000  0.000000      2.000000
  0.250000  0.250000  0.000000      2.000000
  0.500000  0.250000  0.000000      2.000000
 -0.250000  0.250000  0.000000      2.000000
  0.000000  0.500000  0.000000      1.000000
  0.250000  0.500000  0.000000      2.000000
  0.500000  0.500000  0.000000      1.000000
  0.000000  0.000000  0.500000      1.000000
  0.250000  0.000000  0.500000      2.000000
  0.500000  0.000000  0.500000      1.000000
  0.000000  0.250000  0.500000      2.000000
  0.250000  0.250000  0.500000      2.000000
  0.500000  0.250000  0.500000      2.000000
 -0.250000  0.250000  0.500000      2.000000
  0.000000  0.500000  0.500000      1.000000
  0.250000  0.500000  0.500000      2.000000
  0.500000  0.500000  0.500000      1.000000
 
 Following cartesian coordinates:
            Coordinates               Weight
  0.000000  0.000000  0.000000      1.000000
  0.024933  0.014395  0.000000      2.000000
  0.049867  0.028790  0.000000      1.000000
  0.000000  0.028790  0.000000      2.000000
  0.024933  0.043186  0.000000      2.000000
  0.049867  0.057581  0.000000      2.000000
 -0.024933  0.014395  0.000000      2.000000
  0.000000  0.057581  0.000000      1.000000
  0.024933  0.071976  0.000000      2.000000
  0.049867  0.086371  0.000000      1.000000
  0.000000  0.000000  0.023597      1.000000
  0.024933  0.014395  0.023597      2.000000
  0.049867  0.028790  0.023597      1.000000
  0.000000  0.028790  0.023597      2.000000
  0.024933  0.043186  0.023597      2.000000
  0.049867  0.057581  0.023597      2.000000
 -0.024933  0.014395  0.023597      2.000000
  0.000000  0.057581  0.023597      1.000000
  0.024933  0.071976  0.023597      2.000000
  0.049867  0.086371  0.023597      1.000000
 
 TETIRR: Found     96 inequivalent tetrahedra from      192


--------------------------------------------------------------------------------------------------------




 Dimension of arrays:
   k-points           NKPTS =     20   k-points in BZ     NKDIM =     20   number of bands    NBANDS=    414
   number of dos      NEDOS =    301   number of ions     NIONS =     68
   non local maximal  LDIM  =      6   non local SUM 2l+1 LMDIM =     18
   total plane-waves  NPLWV = ******
   max r-space proj   IRMAX =   8439   max aug-charges    IRDMAX=  19969
   dimension x,y,z NGX =    80 NGY =   80 NGZ =  160
   dimension x,y,z NGXF=   160 NGYF=  160 NGZF=  320
   support grid    NGXF=   160 NGYF=  160 NGZF=  320
   ions per type =              49  15   4
   NGX,Y,Z   is equivalent  to a cutoff of  13.26, 13.26, 12.55 a.u.
   NGXF,Y,Z  is equivalent  to a cutoff of  26.53, 26.53, 25.11 a.u.

 SYSTEM =  SQS-NiFe                                
 POSCAR =  POSCAR                                  

 Startparameter for this run:
   NWRITE =      2    write-flag & timer
   PREC   = accura    normal or accurate (medium, high low for compatibility)
   ISTART =      0    job   : 0-new  1-cont  2-samecut
   ICHARG =     11    charge: 1-file 2-atom 10-const
   ISPIN  =      2    spin polarized calculation?
   LNONCOLLINEAR =      F non collinear calculations
   LSORBIT =      F    spin-orbit coupling
   INIWAV =      1    electr: 0-lowe 1-rand  2-diag
   LASPH  =      F    aspherical Exc in radial PAW
   METAGGA=      F    non-selfconsistent MetaGGA calc.

 Electronic Relaxation 1
   ENCUT  =  520.0 eV  38.22 Ry    6.18 a.u.  18.64 18.64 39.40*2*pi/ulx,y,z
   ENINI  =  520.0     initial cutoff
   ENAUG  =  605.4 eV  augmentation charge cutoff
   NELM   =    200;   NELMIN=  2; NELMDL=  0     # of ELM steps 
   EDIFF  = 0.1E-05   stopping-criterion for ELM
   LREAL  =      T    real-space projection
   NLSPLINE    = F    spline interpolate recip. space projectors
   LCOMPAT=      F    compatible to vasp.4.4
   GGA_COMPAT  = T    GGA compatible to vasp.4.4-vasp.4.6
   LMAXPAW     = -100 max onsite density
   LMAXMIX     =    2 max onsite mixed and CHGCAR
   VOSKOWN=      0    Vosko Wilk Nusair interpolation
   ROPT   =   -0.00025  -0.00025  -0.00025
 Ionic relaxation
   EDIFFG = -.2E-01   stopping-criterion for IOM
   NSW    =      0    number of steps for IOM
   NBLOCK =      1;   KBLOCK =      1    inner block; outer block 
   IBRION =     -1    ionic relax: 0-MD 1-quasi-New 2-CG
   NFREE  =      0    steps in history (QN), initial steepest desc. (CG)
   ISIF   =      2    stress and relaxation
   IWAVPR =     10    prediction:  0-non 1-charg 2-wave 3-comb
   ISYM   =      0    0-nonsym 1-usesym 2-fastsym
   LCORR  =      T    Harris-Foulkes like correction to forces

   POTIM  = 0.5000    time-step for ionic-motion
   TEIN   =    0.0    initial temperature
   TEBEG  =    0.0;   TEEND  =   0.0 temperature during run
   SMASS  =  -3.00    Nose mass-parameter (am)
   estimated Nose-frequenzy (Omega)   =  0.10E-29 period in steps =****** mass=  -0.230E-26a.u.
   SCALEE = 1.0000    scale energy and forces
   NPACO  =    256;   APACO  = 16.0  distance and # of slots for P.C.
   PSTRESS=    0.0 pullay stress

  Mass of Ions in am
   POMASS =  58.69 55.85 16.00
  Ionic Valenz
   ZVAL   =  10.00  8.00  6.00
  Atomic Wigner-Seitz radii
   RWIGS  =  -1.00 -1.00 -1.00
  virtual crystal weights 
   VCA    =   1.00  1.00  1.00
   NELECT =     634.0000    total number of electrons
   NUPDOWN=      -1.0000    fix difference up-down

 DOS related values:
   EMIN   =  10.00;   EMAX   =-10.00  energy-range for DOS
   EFERMI =   0.00
   ISMEAR =    -5;   SIGMA  =   0.20  broadening in eV -4-tet -1-fermi 0-gaus

 Electronic relaxation 2 (details)
   IALGO  =     68    algorithm
   LDIAG  =      T    sub-space diagonalisation (order eigenvalues)
   LSUBROT=      F    optimize rotation matrix (better conditioning)
   TURBO    =      0    0=normal 1=particle mesh
   IRESTART =      0    0=no restart 2=restart with 2 vectors
   NREBOOT  =      0    no. of reboots
   NMIN     =      0    reboot dimension
   EREF     =   0.00    reference energy to select bands
   IMIX   =      4    mixing-type and parameters
     AMIX     =   0.40;   BMIX     =  1.00
     AMIX_MAG =   1.60;   BMIX_MAG =  1.00
     AMIN     =   0.10
     WC   =   100.;   INIMIX=   1;  MIXPRE=   1;  MAXMIX= -45

 Intra band minimization:
   WEIMIN = 0.0000     energy-eigenvalue tresh-hold
   EBREAK =  0.60E-09  absolut break condition
   DEPER  =   0.30     relativ break condition  

   TIME   =   0.40     timestep for ELM

  volume/ion in A,a.u.               =      27.13       183.09
  Fermi-wavevector in a.u.,A,eV,Ry     =   1.146698  2.166945 17.890514  1.314916
  Thomas-Fermi vector in A             =   2.283381
 
 Write flags
   LWAVE        =      F    write WAVECAR
   LDOWNSAMPLE  =      F    k-point downsampling of WAVECAR
   LCHARG       =      F    write CHGCAR
   LVTOT        =      F    write LOCPOT, total local potential
   LVHAR        =      F    write LOCPOT, Hartree potential only
   LELF         =      F    write electronic localiz. function (ELF)
   LORBIT       =     11    0 simple, 1 ext, 2 COOP (PROOUT), +10 PAW based schemes


 Dipole corrections
   LMONO  =      F    monopole corrections only (constant potential shift)
   LDIPOL =      T    correct potential (dipole corrections)
   IDIPOL =      3    1-x, 2-y, 3-z, 4-all directions 
   EPSILON=  1.0000000 bulk dielectric constant

 Exchange correlation treatment:
   GGA     =    --    GGA type
   LEXCH   =     8    internal setting for exchange type
   VOSKOWN=      0    Vosko Wilk Nusair interpolation
   LHFCALC =     F    Hartree Fock is set to
   LHFONE  =     F    Hartree Fock one center treatment
   AEXX    =    0.0000 exact exchange contribution

 Linear response parameters
   LEPSILON=     F    determine dielectric tensor
   LRPA    =     F    only Hartree local field effects (RPA)
   LNABLA  =     F    use nabla operator in PAW spheres
   LVEL    =     F    velocity operator in full k-point grid
   LINTERFAST=   F  fast interpolation
   KINTER  =     0    interpolate to denser k-point grid
   CSHIFT  =0.1000    complex shift for real part using Kramers Kronig
   OMEGAMAX=  -1.0    maximum frequency
   DEG_THRESHOLD= 0.2000000E-02 threshold for treating states as degnerate
   RTIME   =   -0.100 relaxation time in fs
  (WPLASMAI=    0.000 imaginary part of plasma frequency in eV, 0.658/RTIME)
   DFIELD  = 0.0000000 0.0000000 0.0000000 field for delta impulse in time
 
 Orbital magnetization related:
   ORBITALMAG=     F  switch on orbital magnetization
   LCHIMAG   =     F  perturbation theory with respect to B field
   DQ        =  0.001000  dq finite difference perturbation B field
   LLRAUG    =     F  two centre corrections for induced B field



--------------------------------------------------------------------------------------------------------


 Static calculation
 charge density and potential remain constant during run
 spin polarized calculation
 RMM-DIIS sequential band-by-band and
  variant of blocked Davidson during initial phase
 perform sub-space diagonalisation
    before iterative eigenvector-optimisation
 no mixing
 using additional bands           97
 real space projection scheme for non local part
 use partial core corrections
 calculate Harris-corrections to forces 
   (improved forces if not selfconsistent)
 use gradient corrections 
 WARNING: stress and forces are not correct
  (second derivative of E(xc) not defined)
 use of overlap-Matrix (Vanderbilt PP)
 Fermi weights with tetrahedron method with Bloechl corrections


--------------------------------------------------------------------------------------------------------


  energy-cutoff  :      520.00
  volume of cell :     1844.87
      direct lattice vectors                 reciprocal lattice vectors
    10.026770000  0.000000000  0.000000000     0.099733015  0.057580883  0.000000000
    -5.013385000  8.683437540  0.000000000     0.000000000  0.115161766  0.000000000
     0.000000000  0.000000000 21.189180000     0.000000000  0.000000000  0.047193898

  length of vectors
    10.026770000 10.026770002 21.189180000     0.115161766  0.115161766  0.047193898


 
 k-points in units of 2pi/SCALE and weight: read from INCAR                         
   0.00000000  0.00000000  0.00000000       0.031
   0.02493325  0.01439522  0.00000000       0.062
   0.04986651  0.02879044  0.00000000       0.031
   0.00000000  0.02879044  0.00000000       0.062
   0.02493325  0.04318566  0.00000000       0.062
   0.04986651  0.05758088  0.00000000       0.062
  -0.02493325  0.01439522  0.00000000       0.062
   0.00000000  0.05758088  0.00000000       0.031
   0.02493325  0.07197610  0.00000000       0.062
   0.04986651  0.08637132  0.00000000       0.031
   0.00000000  0.00000000  0.02359695       0.031
   0.02493325  0.01439522  0.02359695       0.062
   0.04986651  0.02879044  0.02359695       0.031
   0.00000000  0.02879044  0.02359695       0.062
   0.02493325  0.04318566  0.02359695       0.062
   0.04986651  0.05758088  0.02359695       0.062
  -0.02493325  0.01439522  0.02359695       0.062
   0.00000000  0.05758088  0.02359695       0.031
   0.02493325  0.07197610  0.02359695       0.062
   0.04986651  0.08637132  0.02359695       0.031
 
 k-points in reciprocal lattice and weights: read from INCAR                         
   0.00000000  0.00000000  0.00000000       0.031
   0.25000000  0.00000000  0.00000000       0.062
   0.50000000  0.00000000  0.00000000       0.031
   0.00000000  0.25000000  0.00000000       0.062
   0.25000000  0.25000000  0.00000000       0.062
   0.50000000  0.25000000  0.00000000       0.062
  -0.25000000  0.25000000  0.00000000       0.062
   0.00000000  0.50000000  0.00000000       0.031
   0.25000000  0.50000000  0.00000000       0.062
   0.50000000  0.50000000  0.00000000       0.031
   0.00000000  0.00000000  0.50000000       0.031
   0.25000000  0.00000000  0.50000000       0.062
   0.50000000  0.00000000  0.50000000       0.031
   0.00000000  0.25000000  0.50000000       0.062
   0.25000000  0.25000000  0.50000000       0.062
   0.50000000  0.25000000  0.50000000       0.062
  -0.25000000  0.25000000  0.50000000       0.062
   0.00000000  0.50000000  0.50000000       0.031
   0.25000000  0.50000000  0.50000000       0.062
   0.50000000  0.50000000  0.50000000       0.031
 
 position of ions in fractional coordinates (direct lattice) 
   0.99900080  0.00049799  0.28775797
   0.24920712  0.00113919  0.28544962
   0.49920634  0.99978892  0.28797614
   0.74814588  0.99896887  0.28665822
   0.99941608  0.24887449  0.28720185
   0.25143105  0.25249219  0.28753252
   0.08288200  0.16633200  0.09567600
   0.07966166  0.16073233  0.38502561
   0.49919238  0.24977084  0.28676779
   0.33293900  0.16685800  0.09574200
   0.33227458  0.16719357  0.37915739
   0.75029135  0.25186343  0.28835609
   0.58230700  0.16720100  0.09670300
   0.57937795  0.16026111  0.38441549
   0.83403200  0.16672400  0.09645100
   0.83210181  0.16423574  0.37940494
   0.66558100  0.08305500  0.19258300
   0.91639700  0.08203100  0.19204900
   0.00214224  0.50114292  0.28649130
   0.08092200  0.41609700  0.09594800
   0.07974590  0.41758495  0.38401078
   0.16611800  0.33395200  0.19207500
   0.75121258  0.50099564  0.28631171
   0.58357300  0.41617200  0.09593300
   0.58073669  0.41942054  0.38565608
   0.00121427  0.75168968  0.28644250
   0.24968440  0.74991381  0.28567009
   0.08375800  0.66810400  0.09479700
   0.08239383  0.66315187  0.38342099
   0.50082243  0.74952211  0.28708065
   0.33297400  0.66727700  0.09438800
   0.33295530  0.66575820  0.37905382
   0.75052418  0.74960091  0.28620350
   0.58298100  0.66668200  0.09450900
   0.58111551  0.66116182  0.38549054
   0.41661000  0.58200200  0.19081700
   0.83395900  0.66770600  0.09497900
   0.83365358  0.66583242  0.37903036
   0.91708300  0.58323900  0.19079400
   0.08291700  0.91685800  0.09518600
   0.08149457  0.91852791  0.38397066
   0.33420600  0.91705400  0.09538200
   0.33683088  0.91858221  0.38363751
   0.16670900  0.83524200  0.19136500
   0.41703500  0.83214900  0.19205900
   0.83233100  0.91715000  0.09633700
   0.83833387  0.91856866  0.38421702
   0.66623900  0.83337000  0.19234100
   0.91705900  0.83319500  0.19216200
   0.16168500  0.08211500  0.19130600
   0.41607500  0.07807100  0.19177300
   0.24906318  0.49884767  0.28778992
   0.50574883  0.50268997  0.28955114
   0.33134100  0.41714300  0.09577600
   0.33741431  0.41724983  0.38730809
   0.41638400  0.33144300  0.19252200
   0.83354800  0.41839000  0.09448800
   0.83670954  0.41868078  0.38377849
   0.66732400  0.33240600  0.19435500
   0.91446400  0.32695500  0.19396500
   0.16914200  0.58833400  0.18947800
   0.66961600  0.58928900  0.18986000
   0.58310400  0.91651500  0.09583500
   0.58156857  0.91792676  0.38327712
   0.67031133  0.33199075  0.43664812
   0.16701596  0.83345956  0.43497532
   0.16394800  0.33228149  0.43746796
   0.66723881  0.83720099  0.43644009
 
 position of ions in cartesian coordinates  (Angst):
  10.01425461  0.00432428  6.09735543
   2.49303130  0.00989206  6.04844333
  -0.00689963  8.68160463  6.10197825
   2.49327112  8.67448377  6.07405258
   8.77321153  2.16108612  6.08557173
   1.25520075  2.19250017  6.09257842
  -0.00284760  1.44433353  2.02729599
  -0.00706394  1.39570919  8.15837693
   3.75308977  2.16886951  6.07637431
   2.50177938  1.44890102  2.02869447
   2.49343501  1.45181493  8.03403423
   6.26031044  2.18704037  6.11002913
   5.00041537  1.45187944  2.04905727
   5.00583879  1.39161731  8.14544896
   7.52679544  1.44773744  2.04371760
   7.51991646  1.42613079  8.03927955
   6.25724091  0.72120290  4.08067585
   8.77724896  0.71231106  4.06936083
  -2.49094264  4.35164321  6.07051568
  -1.27466818  3.61315231  2.03305944
  -1.29392039  3.62607287  8.13687359
  -0.00860297  2.89985133  4.06991175
   5.02055173  4.35036438  6.06671028
   3.76492179  3.61380357  2.03274160
   3.72019663  3.64201203  8.17173599
  -3.75633450  6.52725035  6.06948170
  -1.25607857  6.51182970  6.05311490
  -2.50964037  5.80143935  2.00867070
  -2.49849166  5.75843782  8.12437632
   1.26398837  6.50842847  6.08300367
  -0.00666279  5.79425815  2.00000432
   0.00076401  5.78106973  8.03183959
   3.76729538  6.50911269  6.06441752
   2.50308286  5.78909151  2.00256821
   2.51205283  5.74115739  8.16822836
   1.25945255  5.05377802  4.04325576
   5.01444784  5.79798335  2.01252713
   5.02077845  5.78171420  8.03134258
   6.27137866  5.06451943  4.04276841
  -3.76517246  7.96147918  2.01691329
  -3.78780667  7.97597969  8.13602340
  -1.24653807  7.96318113  2.02106637
  -1.22788051  7.97645121  8.12896426
  -2.51583691  7.25277174  4.05486743
   0.00963071  7.22591387  4.06957272
   3.74756545  7.96401474  2.04130203
   3.80064259  7.97633356  8.14124354
   2.50222056  7.23651634  4.07554807
   5.01801235  7.23499674  4.07175521
   1.20950420  0.71304047  4.05361727
   3.78048835  0.67792465  4.06351262
  -0.00361624  4.33171258  6.09803240
   2.55084889  4.36507692  6.13535120
   1.23098154  3.62223519  2.02941490
   1.29134166  3.62316287  8.20674081
   2.51333524  2.87806459  4.07938331
   6.26024393  3.63306343  2.00212324
   6.29048623  3.63558836  8.13195154
   5.02462501  2.88642674  4.11822308
   7.52996891  2.83909332  4.10995930
  -1.25359692  5.10876154  4.01488345
   3.75975299  5.11705422  4.02297771
   1.25180714  7.95850076  2.03066507
   1.22933407  7.97075966  8.12132782
   5.05666011  2.88282090  9.25221557
  -2.50382303  7.23729404  9.21677032
  -0.02198612  2.88534553  9.26958739
   2.49303919  7.26978252  9.24780758
 


--------------------------------------------------------------------------------------------------------


 k-point  1 :   0.0000 0.0000 0.0000  plane waves:   49741
 k-point  2 :   0.2500 0.0000 0.0000  plane waves:   49710
 k-point  3 :   0.5000 0.0000 0.0000  plane waves:   49654
 k-point  4 :   0.0000 0.2500 0.0000  plane waves:   49710
 k-point  5 :   0.2500 0.2500 0.0000  plane waves:   49671
 k-point  6 :   0.5000 0.2500 0.0000  plane waves:   49671
 k-point  7 :  -0.2500 0.2500 0.0000  plane waves:   49710
 k-point  8 :   0.0000 0.5000 0.0000  plane waves:   49654
 k-point  9 :   0.2500 0.5000 0.0000  plane waves:   49671
 k-point 10 :   0.5000 0.5000 0.0000  plane waves:   49654
 k-point 11 :   0.0000 0.0000 0.5000  plane waves:   49782
 k-point 12 :   0.2500 0.0000 0.5000  plane waves:   49684
 k-point 13 :   0.5000 0.0000 0.5000  plane waves:   49664
 k-point 14 :   0.0000 0.2500 0.5000  plane waves:   49684
 k-point 15 :   0.2500 0.2500 0.5000  plane waves:   49684
 k-point 16 :   0.5000 0.2500 0.5000  plane waves:   49684
 k-point 17 :  -0.2500 0.2500 0.5000  plane waves:   49684
 k-point 18 :   0.0000 0.5000 0.5000  plane waves:   49664
 k-point 19 :   0.2500 0.5000 0.5000  plane waves:   49684
 k-point 20 :   0.5000 0.5000 0.5000  plane waves:   49664

 maximum and minimum number of plane-waves per node :      2119     2042

 maximum number of plane-waves:     49782
 maximum index in each direction: 
   IXMAX=   18   IYMAX=   18   IZMAX=   39
   IXMIN=  -19   IYMIN=  -19   IZMIN=  -39


 real space projection operators:
  total allocation   :      64950.36 KBytes
  max/ min on nodes  :       3282.28       2390.39


 parallel 3D FFT for wavefunctions:
    minimum data exchange during FFTs selected (reduces bandwidth)
 parallel 3D FFT for charge:
    minimum data exchange during FFTs selected (reduces bandwidth)


 total amount of memory used by VASP MPI-rank0   256287. kBytes
=======================================================================

   base      :      30000. kBytes
   nonlr-proj:      13713. kBytes
   fftplans  :       6403. kBytes
   grid      :      17692. kBytes
   one-center:         93. kBytes
   wavefun   :     188386. kBytes
 
     INWAV:  cpu time    0.0001: real time    0.0010
 initial charge density was supplied:
 number of electron     634.0000079 magnetization      73.5695006
 keeping initial charge density in first step


--------------------------------------------------------------------------------------------------------


 Maximum index for non-local projection operator          764
 Maximum index for augmentation-charges         1117 (set IRDMAX)


--------------------------------------------------------------------------------------------------------


 First call to EWALD:  gamma=   0.145
 Maximum number of real-space cells 4x 4x 2
 Maximum number of reciprocal cells 2x 2x 4

    FEWALD:  cpu time    0.0043: real time    0.0073


--------------------------------------- Iteration      1(   1)  ---------------------------------------


    POTLOK:  cpu time    0.4310: real time    0.4645
    SETDIJ:  cpu time    0.0265: real time    0.0783
     EDDAV:  cpu time  161.8536: real time  162.1119
 BZINTS: Fermi energy: 12.080663;634.000000 electrons
         Band energy:4000.380782;  BLOECHL correction: -0.016016
       DOS:  cpu time    0.2534: real time    0.2535
    --------------------------------------------
      LOOP:  cpu time  162.5646: real time  162.9082

 eigenvalue-minimisations  : 33120
 total energy-change (2. order) : 0.5050447E+04  (-0.2813501E+05)
 number of electron     634.0000079 magnetization      73.5695006
 augmentation part      634.0000079 magnetization      73.5695006

 DIPCOR: dipole corrections for dipol
 direction  3 min pos   233,
 dipolmoment           0.000000      0.000000      0.363840 electrons x Angstroem
 Tr[quadrupol]    -10316.928895

 energy correction for charged system         0.000000 eV
 dipol+quadrupol energy correction           -0.006492 eV
 added-field ion interaction        -10.827677 eV  (added to PSCEN)


 Free energy of the ion-electron system (eV)
  ---------------------------------------------------
  alpha Z        PSCENC =      1325.12037906
  Ewald energy   TEWEN  =    220965.69853201
  -Hartree energ DENC   =   -282868.21510404
  -exchange      EXHF   =         0.00000000
  -V(xc)+E(xc)   XCENC  =      1680.69860989
  PAW double counting   =     67973.14544051   -71476.37870767
  entropy T*S    EENTRO =         0.00000000
  eigenvalues    EBANDS =      4000.38078200
  atomic energy  EATOM  =     63449.99720736
  Solvation  Ediel_sol  =         0.00000000
  ---------------------------------------------------
  free energy    TOTEN  =      5050.44713912 eV

  energy without entropy =     5050.44713912  energy(sigma->0) =     5050.44713912


--------------------------------------------------------------------------------------------------------




--------------------------------------- Iteration      1(   2)  ---------------------------------------


     EDDAV:  cpu time  161.7936: real time  162.0498
 BZINTS: Fermi energy:  1.784957;634.000000 electrons
         Band energy:-841.329333;  BLOECHL correction: -0.014549
       DOS:  cpu time    0.2498: real time    0.2498
    --------------------------------------------
      LOOP:  cpu time  162.0434: real time  162.2996

 eigenvalue-minimisations  : 33120
 total energy-change (2. order) :-0.4841710E+04  (-0.4579978E+04)
 number of electron     634.0000079 magnetization      73.5695006
 augmentation part      634.0000079 magnetization      73.5695006

 DIPCOR: dipole corrections for dipol
 direction  3 min pos   233,
 dipolmoment           0.000000      0.000000      0.363840 electrons x Angstroem
 Tr[quadrupol]    -10316.928895

 energy correction for charged system         0.000000 eV
 dipol+quadrupol energy correction           -0.006492 eV
 added-field ion interaction        -10.827677 eV  (added to PSCEN)


 Free energy of the ion-electron system (eV)
  ---------------------------------------------------
  alpha Z        PSCENC =      1325.12037906
  Ewald energy   TEWEN  =    220965.69853201
  -Hartree energ DENC   =   -282868.21510404
  -exchange      EXHF   =         0.00000000
  -V(xc)+E(xc)   XCENC  =      1680.69860989
  PAW double counting   =     67973.14544051   -71476.37870767
  entropy T*S    EENTRO =         0.00000000
  eigenvalues    EBANDS =      -841.32933255
  atomic energy  EATOM  =     63449.99720736
  Solvation  Ediel_sol  =         0.00000000
  ---------------------------------------------------
  free energy    TOTEN  =       208.73702457 eV

  energy without entropy =      208.73702457  energy(sigma->0) =      208.73702457


--------------------------------------------------------------------------------------------------------




--------------------------------------- Iteration      1(   3)  ---------------------------------------


     EDDAV:  cpu time  167.9864: real time  168.2679
 BZINTS: Fermi energy:  0.400160;634.000000 electrons
         Band energy:***********;  BLOECHL correction: -0.004721
       DOS:  cpu time    0.2230: real time    0.2230
    --------------------------------------------
      LOOP:  cpu time  168.2094: real time  168.4908

 eigenvalue-minimisations  : 34803
 total energy-change (2. order) :-0.5449651E+03  (-0.4754563E+03)
 number of electron     634.0000079 magnetization      73.5695006
 augmentation part      634.0000079 magnetization      73.5695006

 DIPCOR: dipole corrections for dipol
 direction  3 min pos   233,
 dipolmoment           0.000000      0.000000      0.363840 electrons x Angstroem
 Tr[quadrupol]    -10316.928895

 energy correction for charged system         0.000000 eV
 dipol+quadrupol energy correction           -0.006492 eV
 added-field ion interaction        -10.827677 eV  (added to PSCEN)


 Free energy of the ion-electron system (eV)
  ---------------------------------------------------
  alpha Z        PSCENC =      1325.12037906
  Ewald energy   TEWEN  =    220965.69853201
  -Hartree energ DENC   =   -282868.21510404
  -exchange      EXHF   =         0.00000000
  -V(xc)+E(xc)   XCENC  =      1680.69860989
  PAW double counting   =     67973.14544051   -71476.37870767
  entropy T*S    EENTRO =         0.00000000
  eigenvalues    EBANDS =     -1386.29439192
  atomic energy  EATOM  =     63449.99720736
  Solvation  Ediel_sol  =         0.00000000
  ---------------------------------------------------
  free energy    TOTEN  =      -336.22803480 eV

  energy without entropy =     -336.22803480  energy(sigma->0) =     -336.22803480


--------------------------------------------------------------------------------------------------------




--------------------------------------- Iteration      1(   4)  ---------------------------------------


     EDDAV:  cpu time  206.1175: real time  206.2670
 BZINTS: Fermi energy:  0.268092;634.000000 electrons
         Band energy:***********;  BLOECHL correction: -0.034342
       DOS:  cpu time    0.2302: real time    0.2303
    --------------------------------------------
      LOOP:  cpu time  206.3477: real time  206.4973

 eigenvalue-minimisations  : 45225
 total energy-change (2. order) :-0.6380491E+02  (-0.5623928E+02)
 number of electron     634.0000079 magnetization      73.5695006
 augmentation part      634.0000079 magnetization      73.5695006

 DIPCOR: dipole corrections for dipol
 direction  3 min pos   233,
 dipolmoment           0.000000      0.000000      0.363840 electrons x Angstroem
 Tr[quadrupol]    -10316.928895

 energy correction for charged system         0.000000 eV
 dipol+quadrupol energy correction           -0.006492 eV
 added-field ion interaction        -10.827677 eV  (added to PSCEN)


 Free energy of the ion-electron system (eV)
  ---------------------------------------------------
  alpha Z        PSCENC =      1325.12037906
  Ewald energy   TEWEN  =    220965.69853201
  -Hartree energ DENC   =   -282868.21510404
  -exchange      EXHF   =         0.00000000
  -V(xc)+E(xc)   XCENC  =      1680.69860989
  PAW double counting   =     67973.14544051   -71476.37870767
  entropy T*S    EENTRO =         0.00000000
  eigenvalues    EBANDS =     -1450.09929769
  atomic energy  EATOM  =     63449.99720736
  Solvation  Ediel_sol  =         0.00000000
  ---------------------------------------------------
  free energy    TOTEN  =      -400.03294057 eV

  energy without entropy =     -400.03294057  energy(sigma->0) =     -400.03294057


--------------------------------------------------------------------------------------------------------




--------------------------------------- Iteration      1(   5)  ---------------------------------------


     EDDAV:  cpu time  168.7017: real time  168.8221
 BZINTS: Fermi energy:  0.263660;634.000000 electrons
         Band energy:***********;  BLOECHL correction: -0.038168
       DOS:  cpu time    0.2391: real time    0.2391
    --------------------------------------------
      LOOP:  cpu time  168.9407: real time  169.0612

 eigenvalue-minimisations  : 35010
 total energy-change (2. order) :-0.2696752E+01  (-0.2673095E+01)
 number of electron     634.0000079 magnetization      73.5695006
 augmentation part      634.0000079 magnetization      73.5695006

 DIPCOR: dipole corrections for dipol
 direction  3 min pos   233,
 dipolmoment           0.000000      0.000000      0.363840 electrons x Angstroem
 Tr[quadrupol]    -10316.928895

 energy correction for charged system         0.000000 eV
 dipol+quadrupol energy correction           -0.006492 eV
 added-field ion interaction        -10.827677 eV  (added to PSCEN)


 Free energy of the ion-electron system (eV)
  ---------------------------------------------------
  alpha Z        PSCENC =      1325.12037906
  Ewald energy   TEWEN  =    220965.69853201
  -Hartree energ DENC   =   -282868.21510404
  -exchange      EXHF   =         0.00000000
  -V(xc)+E(xc)   XCENC  =      1680.69860989
  PAW double counting   =     67973.14544051   -71476.37870767
  entropy T*S    EENTRO =         0.00000000
  eigenvalues    EBANDS =     -1452.79604964
  atomic energy  EATOM  =     63449.99720736
  Solvation  Ediel_sol  =         0.00000000
  ---------------------------------------------------
  free energy    TOTEN  =      -402.72969251 eV

  energy without entropy =     -402.72969251  energy(sigma->0) =     -402.72969251


--------------------------------------------------------------------------------------------------------




--------------------------------------- Iteration      1(   6)  ---------------------------------------


    EDDIAG:  cpu time   23.3252: real time   23.3676
  RMM-DIIS:  cpu time   87.3470: real time   87.4047
    ORTHCH:  cpu time    6.5744: real time    6.5773
 BZINTS: Fermi energy:  0.263588;634.000000 electrons
         Band energy:***********;  BLOECHL correction: -0.038236
       DOS:  cpu time    0.2339: real time    0.2339
    --------------------------------------------
      LOOP:  cpu time  117.4805: real time  117.5836

 eigenvalue-minimisations  : 34239
 total energy-change (2. order) :-0.6087048E-01  (-0.6085518E-01)
 number of electron     634.0000079 magnetization      73.5695006
 augmentation part      634.0000079 magnetization      73.5695006

 DIPCOR: dipole corrections for dipol
 direction  3 min pos   233,
 dipolmoment           0.000000      0.000000      0.363840 electrons x Angstroem
 Tr[quadrupol]    -10316.928895

 energy correction for charged system         0.000000 eV
 dipol+quadrupol energy correction           -0.006492 eV
 added-field ion interaction        -10.827677 eV  (added to PSCEN)


 Free energy of the ion-electron system (eV)
  ---------------------------------------------------
  alpha Z        PSCENC =      1325.12037906
  Ewald energy   TEWEN  =    220965.69853201
  -Hartree energ DENC   =   -282868.21510404
  -exchange      EXHF   =         0.00000000
  -V(xc)+E(xc)   XCENC  =      1680.69860989
  PAW double counting   =     67973.14544051   -71476.37870767
  entropy T*S    EENTRO =         0.00000000
  eigenvalues    EBANDS =     -1452.85692012
  atomic energy  EATOM  =     63449.99720736
  Solvation  Ediel_sol  =         0.00000000
  ---------------------------------------------------
  free energy    TOTEN  =      -402.79056299 eV

  energy without entropy =     -402.79056299  energy(sigma->0) =     -402.79056299


--------------------------------------------------------------------------------------------------------




--------------------------------------- Iteration      1(   7)  ---------------------------------------


    EDDIAG:  cpu time   23.3091: real time   23.3318
  RMM-DIIS:  cpu time  126.4712: real time  126.5469
    ORTHCH:  cpu time    6.5659: real time    6.5679
 BZINTS: Fermi energy:  0.263583;634.000000 electrons
         Band energy:***********;  BLOECHL correction: -0.038235
       DOS:  cpu time    0.2384: real time    0.2384
    --------------------------------------------
      LOOP:  cpu time  156.5846: real time  156.6851

 eigenvalue-minimisations  : 50652
 total energy-change (2. order) :-0.1943541E-01  (-0.2000781E-01)
 number of electron     634.0000079 magnetization      73.5695006
 augmentation part      634.0000079 magnetization      73.5695006

 DIPCOR: dipole corrections for dipol
 direction  3 min pos   233,
 dipolmoment           0.000000      0.000000      0.363840 electrons x Angstroem
 Tr[quadrupol]    -10316.928895

 energy correction for charged system         0.000000 eV
 dipol+quadrupol energy correction           -0.006492 eV
 added-field ion interaction        -10.827677 eV  (added to PSCEN)


 Free energy of the ion-electron system (eV)
  ---------------------------------------------------
  alpha Z        PSCENC =      1325.12037906
  Ewald energy   TEWEN  =    220965.69853201
  -Hartree energ DENC   =   -282868.21510404
  -exchange      EXHF   =         0.00000000
  -V(xc)+E(xc)   XCENC  =      1680.69860989
  PAW double counting   =     67973.14544051   -71476.37870767
  entropy T*S    EENTRO =         0.00000000
  eigenvalues    EBANDS =     -1452.87635553
  atomic energy  EATOM  =     63449.99720736
  Solvation  Ediel_sol  =         0.00000000
  ---------------------------------------------------
  free energy    TOTEN  =      -402.80999840 eV

  energy without entropy =     -402.80999840  energy(sigma->0) =     -402.80999840


--------------------------------------------------------------------------------------------------------




--------------------------------------- Iteration      1(   8)  ---------------------------------------


    EDDIAG:  cpu time   23.2836: real time   23.3052
  RMM-DIIS:  cpu time  148.5022: real time  148.5977
    ORTHCH:  cpu time    6.5802: real time    6.5823
 BZINTS: Fermi energy:  0.263583;634.000000 electrons
         Band energy:***********;  BLOECHL correction: -0.038236
       DOS:  cpu time    0.2272: real time    0.2272
    --------------------------------------------
      LOOP:  cpu time  178.5933: real time  178.7124

 eigenvalue-minimisations  : 59521
 total energy-change (2. order) :-0.3437450E-03  (-0.8398932E-03)
 number of electron     634.0000079 magnetization      73.5695006
 augmentation part      634.0000079 magnetization      73.5695006

 DIPCOR: dipole corrections for dipol
 direction  3 min pos   233,
 dipolmoment           0.000000      0.000000      0.363840 electrons x Angstroem
 Tr[quadrupol]    -10316.928895

 energy correction for charged system         0.000000 eV
 dipol+quadrupol energy correction           -0.006492 eV
 added-field ion interaction        -10.827677 eV  (added to PSCEN)


 Free energy of the ion-electron system (eV)
  ---------------------------------------------------
  alpha Z        PSCENC =      1325.12037906
  Ewald energy   TEWEN  =    220965.69853201
  -Hartree energ DENC   =   -282868.21510404
  -exchange      EXHF   =         0.00000000
  -V(xc)+E(xc)   XCENC  =      1680.69860989
  PAW double counting   =     67973.14544051   -71476.37870767
  entropy T*S    EENTRO =         0.00000000
  eigenvalues    EBANDS =     -1452.87669927
  atomic energy  EATOM  =     63449.99720736
  Solvation  Ediel_sol  =         0.00000000
  ---------------------------------------------------
  free energy    TOTEN  =      -402.81034215 eV

  energy without entropy =     -402.81034215  energy(sigma->0) =     -402.81034215


--------------------------------------------------------------------------------------------------------




--------------------------------------- Iteration      1(   9)  ---------------------------------------


    EDDIAG:  cpu time   23.2993: real time   23.3205
  RMM-DIIS:  cpu time  136.7161: real time  137.0574
    ORTHCH:  cpu time    6.5584: real time    6.5657
 BZINTS: Fermi energy:  0.263583;634.000000 electrons
         Band energy:***********;  BLOECHL correction: -0.038236
       DOS:  cpu time    0.2372: real time    0.2373
    --------------------------------------------
      LOOP:  cpu time  166.8111: real time  167.1809

 eigenvalue-minimisations  : 54586
 total energy-change (2. order) :-0.3003144E-03  (-0.3268700E-03)
 number of electron     634.0000079 magnetization      73.5695006
 augmentation part      634.0000079 magnetization      73.5695006

 DIPCOR: dipole corrections for dipol
 direction  3 min pos   233,
 dipolmoment           0.000000      0.000000      0.363840 electrons x Angstroem
 Tr[quadrupol]    -10316.928895

 energy correction for charged system         0.000000 eV
 dipol+quadrupol energy correction           -0.006492 eV
 added-field ion interaction        -10.827677 eV  (added to PSCEN)


 Free energy of the ion-electron system (eV)
  ---------------------------------------------------
  alpha Z        PSCENC =      1325.12037906
  Ewald energy   TEWEN  =    220965.69853201
  -Hartree energ DENC   =   -282868.21510404
  -exchange      EXHF   =         0.00000000
  -V(xc)+E(xc)   XCENC  =      1680.69860989
  PAW double counting   =     67973.14544051   -71476.37870767
  entropy T*S    EENTRO =         0.00000000
  eigenvalues    EBANDS =     -1452.87699959
  atomic energy  EATOM  =     63449.99720736
  Solvation  Ediel_sol  =         0.00000000
  ---------------------------------------------------
  free energy    TOTEN  =      -402.81064246 eV

  energy without entropy =     -402.81064246  energy(sigma->0) =     -402.81064246


--------------------------------------------------------------------------------------------------------




--------------------------------------- Iteration      1(  10)  ---------------------------------------


    EDDIAG:  cpu time   23.3117: real time   23.3329
  RMM-DIIS:  cpu time   95.0358: real time   95.1623
    ORTHCH:  cpu time    6.5751: real time    6.5770
 BZINTS: Fermi energy:  0.263583;634.000000 electrons
         Band energy:***********;  BLOECHL correction: -0.038236
       DOS:  cpu time    0.2276: real time    0.2283
    --------------------------------------------
      LOOP:  cpu time  125.1502: real time  125.3005

 eigenvalue-minimisations  : 36879
 total energy-change (2. order) : 0.3333727E-05  (-0.6244144E-04)
 number of electron     634.0000079 magnetization      73.5695006
 augmentation part      634.0000079 magnetization      73.5695006

 DIPCOR: dipole corrections for dipol
 direction  3 min pos   233,
 dipolmoment           0.000000      0.000000      0.363840 electrons x Angstroem
 Tr[quadrupol]    -10316.928895

 energy correction for charged system         0.000000 eV
 dipol+quadrupol energy correction           -0.006492 eV
 added-field ion interaction        -10.827677 eV  (added to PSCEN)


 Free energy of the ion-electron system (eV)
  ---------------------------------------------------
  alpha Z        PSCENC =      1325.12037906
  Ewald energy   TEWEN  =    220965.69853201
  -Hartree energ DENC   =   -282868.21510404
  -exchange      EXHF   =         0.00000000
  -V(xc)+E(xc)   XCENC  =      1680.69860989
  PAW double counting   =     67973.14544051   -71476.37870767
  entropy T*S    EENTRO =         0.00000000
  eigenvalues    EBANDS =     -1452.87699625
  atomic energy  EATOM  =     63449.99720736
  Solvation  Ediel_sol  =         0.00000000
  ---------------------------------------------------
  free energy    TOTEN  =      -402.81063913 eV

  energy without entropy =     -402.81063913  energy(sigma->0) =     -402.81063913


--------------------------------------------------------------------------------------------------------




--------------------------------------- Iteration      1(  11)  ---------------------------------------


    EDDIAG:  cpu time   23.3109: real time   23.3313
  RMM-DIIS:  cpu time   57.7724: real time   57.8007
    ORTHCH:  cpu time    6.5998: real time    6.6014
 BZINTS: Fermi energy:  0.263583;634.000000 electrons
         Band energy:***********;  BLOECHL correction: -0.038236
       DOS:  cpu time    0.2328: real time    0.2329
    --------------------------------------------
      LOOP:  cpu time   87.9158: real time   87.9664

 eigenvalue-minimisations  : 21588
 total energy-change (2. order) :-0.8645118E-05  (-0.1974913E-04)
 number of electron     634.0000079 magnetization      73.5695006
 augmentation part      634.0000079 magnetization      73.5695006

 DIPCOR: dipole corrections for dipol
 direction  3 min pos   233,
 dipolmoment           0.000000      0.000000      0.363840 electrons x Angstroem
 Tr[quadrupol]    -10316.928895

 energy correction for charged system         0.000000 eV
 dipol+quadrupol energy correction           -0.006492 eV
 added-field ion interaction        -10.827677 eV  (added to PSCEN)


 Free energy of the ion-electron system (eV)
  ---------------------------------------------------
  alpha Z        PSCENC =      1325.12037906
  Ewald energy   TEWEN  =    220965.69853201
  -Hartree energ DENC   =   -282868.21510404
  -exchange      EXHF   =         0.00000000
  -V(xc)+E(xc)   XCENC  =      1680.69860989
  PAW double counting   =     67973.14544051   -71476.37870767
  entropy T*S    EENTRO =         0.00000000
  eigenvalues    EBANDS =     -1452.87700490
  atomic energy  EATOM  =     63449.99720736
  Solvation  Ediel_sol  =         0.00000000
  ---------------------------------------------------
  free energy    TOTEN  =      -402.81064777 eV

  energy without entropy =     -402.81064777  energy(sigma->0) =     -402.81064777


--------------------------------------------------------------------------------------------------------




--------------------------------------- Iteration      1(  12)  ---------------------------------------


    EDDIAG:  cpu time   23.3163: real time   23.3371
  RMM-DIIS:  cpu time   54.2417: real time   54.2675
    ORTHCH:  cpu time    6.5816: real time    6.5840
 BZINTS: Fermi energy:  0.263583;634.000000 electrons
         Band energy:***********;  BLOECHL correction: -0.038236
       DOS:  cpu time    0.2328: real time    0.2329
    --------------------------------------------
      LOOP:  cpu time   84.3725: real time   84.4216

 eigenvalue-minimisations  : 20115
 total energy-change (2. order) :-0.2955785E-05  (-0.7099259E-05)
 number of electron     634.0000079 magnetization      73.5695006
 augmentation part      634.0000079 magnetization      73.5695006

 DIPCOR: dipole corrections for dipol
 direction  3 min pos   233,
 dipolmoment           0.000000      0.000000      0.363840 electrons x Angstroem
 Tr[quadrupol]    -10316.928895

 energy correction for charged system         0.000000 eV
 dipol+quadrupol energy correction           -0.006492 eV
 added-field ion interaction        -10.827677 eV  (added to PSCEN)


 Free energy of the ion-electron system (eV)
  ---------------------------------------------------
  alpha Z        PSCENC =      1325.12037906
  Ewald energy   TEWEN  =    220965.69853201
  -Hartree energ DENC   =   -282868.21510404
  -exchange      EXHF   =         0.00000000
  -V(xc)+E(xc)   XCENC  =      1680.69860989
  PAW double counting   =     67973.14544051   -71476.37870767
  entropy T*S    EENTRO =         0.00000000
  eigenvalues    EBANDS =     -1452.87700785
  atomic energy  EATOM  =     63449.99720736
  Solvation  Ediel_sol  =         0.00000000
  ---------------------------------------------------
  free energy    TOTEN  =      -402.81065073 eV

  energy without entropy =     -402.81065073  energy(sigma->0) =     -402.81065073


--------------------------------------------------------------------------------------------------------




--------------------------------------- Iteration      1(  13)  ---------------------------------------


    EDDIAG:  cpu time   23.3258: real time   23.3446
  RMM-DIIS:  cpu time   53.0604: real time   53.0870
    ORTHCH:  cpu time    6.5784: real time    6.5809
 BZINTS: Fermi energy:  0.263583;634.000000 electrons
         Band energy:***********;  BLOECHL correction: -0.038236
       DOS:  cpu time    0.2225: real time    0.2225
    --------------------------------------------
      LOOP:  cpu time   83.1872: real time   83.2351

 eigenvalue-minimisations  : 19520
 total energy-change (2. order) : 0.4748581E-06  (-0.1450286E-05)
 number of electron     634.0000079 magnetization      73.5695006
 augmentation part      634.0000079 magnetization      73.5695006

 DIPCOR: dipole corrections for dipol
 direction  3 min pos   233,
 dipolmoment           0.000000      0.000000      0.363840 electrons x Angstroem
 Tr[quadrupol]    -10316.928895

 energy correction for charged system         0.000000 eV
 dipol+quadrupol energy correction           -0.006492 eV
 added-field ion interaction        -10.827677 eV  (added to PSCEN)


 Free energy of the ion-electron system (eV)
  ---------------------------------------------------
  alpha Z        PSCENC =      1325.12037906
  Ewald energy   TEWEN  =    220965.69853201
  -Hartree energ DENC   =   -282868.21510404
  -exchange      EXHF   =         0.00000000
  -V(xc)+E(xc)   XCENC  =      1680.69860989
  PAW double counting   =     67973.14544051   -71476.37870767
  entropy T*S    EENTRO =         0.00000000
  eigenvalues    EBANDS =     -1452.87700738
  atomic energy  EATOM  =     63449.99720736
  Solvation  Ediel_sol  =         0.00000000
  ---------------------------------------------------
  free energy    TOTEN  =      -402.81065026 eV

  energy without entropy =     -402.81065026  energy(sigma->0) =     -402.81065026


--------------------------------------------------------------------------------------------------------




--------------------------------------- Iteration      1(  14)  ---------------------------------------


    EDDIAG:  cpu time   23.3119: real time   23.3312
  RMM-DIIS:  cpu time   51.5136: real time   51.5379
    ORTHCH:  cpu time    6.5846: real time    6.5863
 BZINTS: Fermi energy:  0.263583;634.000000 electrons
         Band energy:***********;  BLOECHL correction: -0.038236
       DOS:  cpu time    0.2367: real time    0.2368
    --------------------------------------------
      LOOP:  cpu time   81.6468: real time   81.6921

 eigenvalue-minimisations  : 18815
 total energy-change (2. order) :-0.1299777E-06  (-0.4548756E-06)
 number of electron     634.0000079 magnetization      73.5695006
 augmentation part      634.0000079 magnetization      73.5695006

 DIPCOR: dipole corrections for dipol
 direction  3 min pos   233,
 dipolmoment           0.000000      0.000000      0.363840 electrons x Angstroem
 Tr[quadrupol]    -10316.928895

 energy correction for charged system         0.000000 eV
 dipol+quadrupol energy correction           -0.006492 eV
 added-field ion interaction        -10.827677 eV  (added to PSCEN)


 Free energy of the ion-electron system (eV)
  ---------------------------------------------------
  alpha Z        PSCENC =      1325.12037906
  Ewald energy   TEWEN  =    220965.69853201
  -Hartree energ DENC   =   -282868.21510404
  -exchange      EXHF   =         0.00000000
  -V(xc)+E(xc)   XCENC  =      1680.69860989
  PAW double counting   =     67973.14544051   -71476.37870767
  entropy T*S    EENTRO =         0.00000000
  eigenvalues    EBANDS =     -1452.87700751
  atomic energy  EATOM  =     63449.99720736
  Solvation  Ediel_sol  =         0.00000000
  ---------------------------------------------------
  free energy    TOTEN  =      -402.81065039 eV

  energy without entropy =     -402.81065039  energy(sigma->0) =     -402.81065039


--------------------------------------------------------------------------------------------------------




 average (electrostatic) potential at core
  the test charge radii are     0.9791  1.0103  0.7215
  (the norm of the test charge is              1.0000)
       1 -91.0155       2 -91.0823       3 -91.0410       4 -91.1113       5 -91.1321
       6 -91.2064       7 -90.8428       8 -91.0754       9 -91.1509      10 -90.9607
      11 -90.8175      12 -91.1244      13 -90.9544      14 -91.0320      15 -90.9032
      16 -90.8077      17 -91.1224      18 -91.0970      19 -91.1162      20 -90.9818
      21 -91.1591      22 -91.2088      23 -91.1756      24 -91.0020      25 -91.0876
      26 -91.1416      27 -91.0966      28 -90.9057      29 -91.1720      30 -91.1461
      31 -90.8981      32 -90.8584      33 -91.1515      34 -90.8800      35 -91.1341
      36 -91.1806      37 -90.9067      38 -90.8141      39 -91.2177      40 -90.8662
      41 -91.1195      42 -90.8827      43 -91.0691      44 -91.1544      45 -91.1471
      46 -90.8860      47 -91.0281      48 -91.1419      49 -91.1512      50 -49.3966
      51 -49.2978      52 -49.3009      53 -49.2620      54 -49.3704      55 -49.5124
      56 -49.1254      57 -49.3661      58 -49.6255      59 -49.1353      60 -49.3109
      61 -49.4471      62 -49.3731      63 -49.4641      64 -49.6101      65 -75.9259
      66 -76.0308      67 -75.9548      68 -75.9594
 
 
 
 E-fermi :   0.2636     XC(G=0):  -6.0569     alpha+bet : -6.1970


 spin component 1

 k-point     1 :       0.0000    0.0000    0.0000
  band No.  band energies     occupation 
      1     -18.8084      1.00000
      2     -18.7707      1.00000
      3     -18.7537      1.00000
      4     -18.7110      1.00000
      5      -8.2204      1.00000
      6      -6.8494      1.00000
      7      -6.4564      1.00000
      8      -6.4387      1.00000
      9      -6.4305      1.00000
     10      -6.3309      1.00000
     11      -6.3267      1.00000
     12      -6.3031      1.00000
     13      -5.7432      1.00000
     14      -5.7332      1.00000
     15      -5.7124      1.00000
     16      -5.5377      1.00000
     17      -5.4654      1.00000
     18      -5.4218      1.00000
     19      -5.3621      1.00000
     20      -5.3277      1.00000
     21      -5.3150      1.00000
     22      -5.2441      1.00000
     23      -5.2297      1.00000
     24      -5.2246      1.00000
     25      -5.0188      1.00000
     26      -4.9107      1.00000
     27      -4.8901      1.00000
     28      -4.8794      1.00000
     29      -4.7982      1.00000
     30      -4.7779      1.00000
     31      -4.7347      1.00000
     32      -4.6434      1.00000
     33      -4.5638      1.00000
     34      -4.5357      1.00000
     35      -4.5306      1.00000
     36      -4.4725      1.00000
     37      -4.4476      1.00000
     38      -4.4394      1.00000
     39      -4.1477      1.00000
     40      -4.1300      1.00000
     41      -4.1224      1.00000
     42      -4.0969      1.00000
     43      -4.0930      1.00000
     44      -4.0685      1.00000
     45      -4.0597      1.00000
     46      -4.0484      1.00000
     47      -4.0290      1.00000
     48      -4.0206      1.00000
     49      -4.0110      1.00000
     50      -3.9941      1.00000
     51      -3.9621      1.00000
     52      -3.9517      1.00000
     53      -3.9472      1.00000
     54      -3.9097      1.00000
     55      -3.8979      1.00000
     56      -3.8801      1.00000
     57      -3.8700      1.00000
     58      -3.8648      1.00000
     59      -3.8506      1.00000
     60      -3.8246      1.00000
     61      -3.8098      1.00000
     62      -3.7998      1.00000
[...]
   -.612E+01 0.169E+03 -.271E+04   0.550E+01 -.171E+03 0.271E+04   -.114E-01 0.191E+01 0.417E+00   0.614E+00 -.118E+00 -.168E+01
   0.378E+01 0.937E+02 -.795E+03   -.356E+01 -.939E+02 0.797E+03   0.710E-01 -.368E-01 0.603E+00   -.306E+00 0.266E+00 -.292E+01
   -.265E+02 0.337E+02 0.300E+04   0.265E+02 -.337E+02 -.300E+04   -.229E+00 0.584E-03 -.111E+01   0.215E-01 -.133E+00 0.218E+01
   -.448E+02 0.431E+02 -.271E+04   0.446E+02 -.433E+02 0.271E+04   -.178E+00 -.830E-02 0.288E+01   0.371E+00 0.216E+00 -.231E+01
   0.469E+02 0.843E+02 -.749E+03   -.459E+02 -.841E+02 0.752E+03   -.973E-01 -.991E-01 0.392E+00   -.969E+00 -.120E+00 -.298E+01
   0.212E+02 0.518E+02 0.299E+04   -.209E+02 -.515E+02 -.299E+04   0.226E+00 0.390E-01 -.122E+01   -.304E+00 -.420E+00 0.215E+01
   0.470E+02 0.148E+03 -.271E+04   -.465E+02 -.150E+03 0.272E+04   -.579E-01 0.209E+01 0.631E+00   -.445E+00 -.248E-01 -.190E+01
   -.246E+02 0.102E+03 0.110E+04   0.248E+02 -.102E+03 -.110E+04   -.169E+00 0.176E+00 -.561E+00   -.672E-01 -.123E+00 0.324E+00
   0.103E+02 0.785E+02 0.299E+04   -.106E+02 -.781E+02 -.299E+04   -.114E+00 0.365E-01 -.115E+01   0.236E+00 -.426E+00 0.195E+01
   0.592E+01 0.544E+02 -.274E+04   -.546E+01 -.540E+02 0.274E+04   0.668E-01 0.100E+00 0.279E+01   -.543E+00 -.445E+00 -.160E+01
   0.296E+01 0.119E+03 0.117E+04   -.288E+01 -.119E+03 -.117E+04   -.700E-01 0.253E+00 -.345E+00   0.184E-02 -.532E+00 -.294E+00
   -.162E+02 -.318E+02 0.300E+04   0.158E+02 0.318E+02 -.300E+04   0.151E-02 -.268E-01 -.159E+01   0.381E+00 0.708E-01 0.179E+01
   0.900E+02 -.601E+02 -.273E+04   -.919E+02 0.606E+02 0.273E+04   0.172E+01 -.104E+01 0.661E+00   0.124E+00 0.523E+00 -.159E+01
   -.319E+02 -.349E+02 0.299E+04   0.320E+02 0.350E+02 -.299E+04   -.182E+00 -.912E-02 -.127E+01   -.595E-02 -.727E-01 0.213E+01
   -.143E+03 -.540E+02 -.272E+04   0.144E+03 0.545E+02 0.272E+04   -.174E+01 -.107E+01 0.482E+00   0.753E+00 0.543E+00 -.221E+01
   -.292E+02 -.162E+02 0.115E+04   0.287E+02 0.161E+02 -.115E+04   -.203E-01 -.313E-01 -.359E+00   0.511E+00 0.144E+00 -.476E-01
   0.623E+01 0.131E+02 0.114E+04   -.626E+01 -.131E+02 -.114E+04   -.786E-01 -.113E+00 -.362E+00   0.217E+00 0.151E+00 0.589E+00
   0.343E+02 0.306E+01 0.301E+04   -.344E+02 -.276E+01 -.301E+04   0.167E+00 -.810E-01 -.126E+01   0.238E-01 -.235E+00 0.183E+01
   -.536E+02 -.341E+02 -.274E+04   0.558E+02 0.351E+02 0.274E+04   -.177E+01 -.998E+00 0.842E+00   -.420E+00 0.288E-01 -.174E+01
   0.243E+02 0.541E+02 0.114E+04   -.236E+02 -.537E+02 -.115E+04   0.402E-01 -.118E+00 -.357E+00   -.779E+00 -.265E+00 0.587E+00
   -.168E+01 0.236E+02 0.113E+04   0.163E+01 -.234E+02 -.113E+04   0.148E-01 -.508E-01 -.177E+00   0.445E-01 -.150E+00 -.139E+00
   -.638E+02 -.758E+02 0.911E+03   0.635E+02 0.756E+02 -.911E+03   -.132E+00 -.110E+00 -.317E+00   0.445E+00 0.429E+00 0.834E-01
   0.256E+02 -.883E+02 0.913E+03   -.259E+02 0.884E+02 -.913E+03   0.138E+00 -.229E+00 -.364E+00   0.163E+00 0.208E+00 0.553E+00
   -.496E+02 0.134E+02 -.610E+03   0.496E+02 -.134E+02 0.612E+03   -.272E+00 -.693E-01 0.315E+00   0.261E+00 0.148E+00 -.241E+01
   0.430E+02 0.423E+02 -.608E+03   -.428E+02 -.421E+02 0.611E+03   0.543E-01 0.201E-02 -.716E+00   -.168E+00 -.226E+00 -.237E+01
   -.290E+02 0.126E+02 0.236E+04   0.289E+02 -.125E+02 -.236E+04   -.146E-01 -.353E-01 -.266E+01   0.122E+00 -.294E-01 0.177E+01
   -.773E+02 -.706E+02 -.216E+04   0.779E+02 0.710E+02 0.216E+04   -.716E+00 -.561E+00 0.143E+01   0.832E-01 0.114E+00 -.153E+01
   -.239E+02 -.237E+02 0.886E+03   0.241E+02 0.237E+02 -.886E+03   -.281E+00 0.577E-01 -.288E+00   0.642E-01 -.730E-01 0.164E+00
   0.111E+02 0.319E+02 0.236E+04   -.109E+02 -.323E+02 -.236E+04   -.631E-01 0.677E-01 -.295E+01   -.654E-01 0.262E+00 0.176E+01
   -.768E+02 -.446E+02 -.216E+04   0.778E+02 0.456E+02 0.216E+04   -.685E+00 -.398E+00 0.100E+01   -.381E+00 -.552E+00 -.144E+01
   0.366E+02 -.219E+02 0.903E+03   -.364E+02 0.220E+02 -.903E+03   0.132E-01 0.113E+00 -.414E+00   -.161E+00 -.144E+00 0.376E+00
   0.311E+02 -.635E+02 0.902E+03   -.312E+02 0.634E+02 -.903E+03   0.342E+00 -.165E-01 -.228E+00   -.285E+00 0.124E+00 0.211E+00
   -.131E+02 0.697E+02 0.912E+03   0.129E+02 -.696E+02 -.912E+03   0.300E-01 -.649E-01 -.373E+00   0.218E+00 0.907E-02 0.715E-01
   0.279E+02 0.115E+03 0.910E+03   -.279E+02 -.115E+03 -.910E+03   0.217E+00 0.266E+00 -.456E+00   -.174E+00 -.431E+00 0.975E-01
   0.109E+02 -.115E+02 0.241E+04   -.106E+02 0.117E+02 -.241E+04   0.476E-02 0.693E-01 -.272E+01   -.326E+00 -.193E+00 0.175E+01
   0.869E+02 -.283E+02 -.217E+04   -.873E+02 0.288E+02 0.218E+04   0.854E+00 -.529E+00 0.102E+01   -.383E+00 0.491E-01 -.184E+01
   -.256E+02 -.161E+02 -.215E+04   0.243E+02 0.156E+02 0.218E+04   0.141E+01 0.772E+00 -.273E+02   -.128E+00 -.337E+00 -.459E+00
   -.906E+01 0.819E+01 -.220E+04   0.869E+01 -.857E+01 0.222E+04   0.443E-01 0.112E+00 -.280E+02   0.328E+00 0.264E+00 -.108E+00
   -.241E+02 -.304E+02 -.215E+04   0.223E+02 0.295E+02 0.218E+04   0.167E+01 0.798E+00 -.274E+02   0.388E-01 0.775E-01 -.177E+00
   0.387E+02 -.635E+01 -.216E+04   -.373E+02 0.572E+01 0.219E+04   -.123E+01 0.669E+00 -.275E+02   -.109E+00 -.537E-01 -.264E+00
 -----------------------------------------------------------------------------------------------
   -.290E+01 -.364E+01 0.160E+03   -.497E-13 0.520E-12 0.318E-11   0.266E+01 0.367E+01 -.118E+03   0.238E+00 -.404E-01 -.416E+02
 
 
 POSITION                                       TOTAL-FORCE (eV/Angst)
 -----------------------------------------------------------------------------------
     10.01425      0.00432      6.09736        -0.002984     -0.008023      0.020672
      2.49303      0.00989      6.04844         0.001006      0.001532      0.012350
     -0.00690      8.68160      6.10198        -0.019858     -0.018905      0.012067
      2.49327      8.67448      6.07405        -0.000993      0.001120      0.040710
      8.77321      2.16109      6.08557         0.000408      0.000007      0.025506
      1.25520      2.19250      6.09258         0.002220      0.014024      0.017561
     -0.00285      1.44433      2.02730        -0.074158      0.012462      0.146869
     -0.00706      1.39571      8.15838         0.004269      0.051506     -0.005617
      3.75309      2.16887      6.07637         0.008295     -0.002224      0.016636
      2.50178      1.44890      2.02869         0.102654     -0.051192      0.166419
      2.49344      1.45181      8.03403        -0.000722      0.012517      0.012927
      6.26031      2.18704      6.11003         0.006681      0.007666     -0.013165
      5.00042      1.45188      2.04906        -0.039235      0.043849      0.174840
      5.00584      1.39162      8.14545         0.009255      0.054198     -0.001748
      7.52680      1.44774      2.04372        -0.023490      0.029936      0.284466
      7.51992      1.42613      8.03928         0.010064     -0.009857      0.037322
      6.25724      0.72120      4.08068         0.030827     -0.051729     -0.196055
      8.77725      0.71231      4.06936        -0.035886     -0.027594     -0.114163
     -2.49094      4.35164      6.07052         0.010732      0.011721      0.012240
     -1.27467      3.61315      2.03306        -0.039226      0.144034      0.184586
     -1.29392      3.62607      8.13687         0.015839     -0.028027      0.000640
     -0.00860      2.89985      4.06991         0.091836      0.006504     -0.173386
      5.02055      4.35036      6.06671        -0.012154      0.018171      0.010418
      3.76492      3.61380      2.03274        -0.045471      0.105863      0.111135
      3.72020      3.64201      8.17174         0.024813      0.005059      0.020620
     -3.75633      6.52725      6.06948        -0.000051      0.011302      0.027920
     -1.25608      6.51183      6.05311         0.019698     -0.002466      0.009870
     -2.50964      5.80144      2.00867         0.145563     -0.104534      0.318755
     -2.49849      5.75844      8.12438        -0.015333     -0.030920     -0.010583
      1.26399      6.50843      6.08300        -0.011623     -0.021570      0.032072
     -0.00666      5.79426      2.00000        -0.134647     -0.092117      0.219556
      0.00076      5.78107      8.03184         0.002178      0.006170      0.006027
      3.76730      6.50911      6.06442        -0.003605     -0.002307      0.009919
      2.50308      5.78909      2.00257         0.194328     -0.098376      0.228831
      2.51205      5.74116      8.16823        -0.006589      0.001932      0.013472
      1.25945      5.05378      4.04326        -0.014754     -0.023675     -0.095452
      5.01445      5.79798      2.01253        -0.221264     -0.049752      0.236466
      5.02078      5.78171      8.03134        -0.009760      0.005211      0.009395
      6.27138      5.06452      4.04277         0.016268     -0.059538     -0.107880
     -3.76517      7.96148      2.01691         0.033484      0.072035      0.246644
     -3.78781      7.97598      8.13602         0.001562     -0.028002     -0.020964
     -1.24654      7.96318      2.02107        -0.031520      0.005082      0.170925
     -1.22788      7.97645      8.12896         0.006174     -0.015495     -0.032209
     -2.51584      7.25277      4.05487        -0.066276     -0.034784     -0.123556
      0.00963      7.22591      4.06957         0.113903      0.001708     -0.187425
      3.74757      7.96401      2.04130         0.106701     -0.012442      0.179796
      3.80064      7.97633      8.14124        -0.050413     -0.017905     -0.018119
      2.50222      7.23652      4.07555        -0.048369      0.002027     -0.187613
      5.01801      7.23500      4.07176         0.013195      0.014140     -0.098286
      1.20950      0.71304      4.05362         0.019935      0.052704     -0.234875
      3.78049      0.67792      4.06351        -0.061671      0.038919     -0.249187
     -0.00362      4.33171      6.09803         0.004484     -0.003856      0.003019
      2.55085      4.36508      6.13535        -0.002530     -0.002767     -0.028959
      1.23098      3.62224      2.02941        -0.009595      0.063870      0.122744
      1.29134      3.62316      8.20674        -0.000844     -0.012125     -0.010203
      2.51334      2.87806      4.07938        -0.026135     -0.005749     -0.138444
      6.26024      3.63306      2.00212         0.011643     -0.033180      0.182749
      6.29049      3.63559      8.13195         0.005674     -0.009441     -0.030440
      5.02463      2.88643      4.11822         0.063401      0.021548     -0.455166
      7.52997      2.83909      4.10996        -0.001685     -0.009693     -0.272829
     -1.25360      5.10876      4.01488         0.055338     -0.009813     -0.297546
      3.75975      5.11705      4.02298        -0.049612      0.029951     -0.282214
      1.25181      7.95850      2.03067        -0.043126      0.086016      0.315010
      1.22933      7.97076      8.12133         0.008726      0.005168     -0.044215
      5.05666      2.88282      9.25222        -0.016767     -0.029472     -0.050986
     -2.50382      7.23729      9.21677        -0.004902      0.003823     -0.065002
     -0.02199      2.88535      9.26959        -0.037933     -0.018913     -0.057556
      2.49304      7.26978      9.24781         0.022022     -0.015329     -0.037308
 -----------------------------------------------------------------------------------
    total drift:                               -0.000526     -0.002528      0.068301


--------------------------------------------------------------------------------------------------------



  FREE ENERGIE OF THE ION-ELECTRON SYSTEM (eV)
  ---------------------------------------------------
  free  energy   TOTEN  =      -419.56227169 eV

  energy  without entropy=     -419.56227169  energy(sigma->0) =     -419.56227169
 


--------------------------------------------------------------------------------------------------------


    POTLOK:  cpu time    0.4578: real time    0.4579


--------------------------------------------------------------------------------------------------------


 stress matrix after NEB project (eV)
    -31.90745      0.55135     -0.02015
      0.55135    -31.35468     -0.47588
     -0.02015     -0.47588    -12.37156
  FORCES: max atom, RMS     0.071480    0.025988
  FORCE total and by dimension    0.214301    0.065002
  Stress total and by dimension   46.425408   31.907451
     LOOP+:  cpu time 2088.7220: real time 2091.0397
    4ORBIT:  cpu time    0.0000: real time    0.0000
 


 total charge     
 
# of ion       s       p       d       tot
------------------------------------------
    1        0.499   0.496   8.331   9.326
    2        0.494   0.494   8.326   9.313
    3        0.504   0.504   8.316   9.324
    4        0.492   0.495   8.310   9.297
    5        0.497   0.499   8.331   9.327
    6        0.505   0.511   8.315   9.332
    7        0.488   0.381   8.325   9.194
    8        0.488   0.489   8.335   9.312
    9        0.504   0.508   8.320   9.331
   10        0.501   0.388   8.307   9.195
   11        0.477   0.378   8.361   9.216
   12        0.502   0.510   8.328   9.340
   13        0.497   0.394   8.325   9.217
   14        0.494   0.495   8.331   9.320
   15        0.497   0.388   8.327   9.213
   16        0.480   0.381   8.378   9.239
   17        0.506   0.508   8.324   9.338
   18        0.500   0.500   8.333   9.334
   19        0.507   0.512   8.328   9.347
   20        0.501   0.392   8.318   9.211
   21        0.497   0.502   8.338   9.337
   22        0.508   0.520   8.320   9.349
   23        0.503   0.510   8.329   9.343
   24        0.502   0.393   8.316   9.211
   25        0.496   0.496   8.334   9.326
   26        0.486   0.486   8.331   9.302
   27        0.494   0.494   8.326   9.314
   28        0.490   0.383   8.312   9.186
   29        0.496   0.504   8.339   9.338
   30        0.498   0.501   8.313   9.312
   31        0.499   0.385   8.322   9.206
   32        0.484   0.386   8.360   9.231
   33        0.498   0.499   8.328   9.325
   34        0.492   0.385   8.327   9.203
   35        0.496   0.500   8.332   9.327
   36        0.506   0.511   8.317   9.334
   37        0.495   0.381   8.316   9.192
   38        0.476   0.377   8.362   9.215
   39        0.504   0.509   8.309   9.322
   40        0.483   0.371   8.318   9.172
   41        0.493   0.497   8.332   9.322
   42        0.490   0.380   8.328   9.198
   43        0.499   0.502   8.336   9.338
   44        0.503   0.506   8.324   9.333
   45        0.501   0.507   8.318   9.326
   46        0.485   0.377   8.327   9.189
   47        0.490   0.489   8.342   9.320
   48        0.498   0.502   8.316   9.316
   49        0.499   0.500   8.322   9.321
   50        0.474   0.507   6.150   7.131
   51        0.477   0.512   6.173   7.161
   52        0.469   0.504   6.171   7.144
   53        0.480   0.516   6.184   7.181
   54        0.462   0.392   6.115   6.969
   55        0.473   0.513   6.176   7.162
   56        0.474   0.512   6.198   7.184
   57        0.462   0.388   6.116   6.967
   58        0.475   0.520   6.160   7.155
   59        0.478   0.513   6.197   7.189
   60        0.474   0.510   6.167   7.151
   61        0.473   0.503   6.146   7.122
   62        0.476   0.508   6.157   7.141
   63        0.461   0.393   6.094   6.948
   64        0.476   0.525   6.167   7.167
   65        1.581   3.354   0.000   4.935
   66        1.582   3.346   0.000   4.928
   67        1.581   3.355   0.000   4.936
   68        1.581   3.356   0.000   4.937
--------------------------------------------------
tot         37.705  43.306 500.430 581.441
 


 magnetization (x)
 
# of ion       s       p       d       tot
------------------------------------------
    1       -0.008  -0.026   0.570   0.535
    2       -0.013  -0.031   0.671   0.626
    3       -0.010  -0.028   0.594   0.556
    4       -0.012  -0.033   0.701   0.656
    5       -0.012  -0.032   0.681   0.638
    6       -0.022  -0.045   0.742   0.675
    7       -0.016  -0.032   0.647   0.598
    8       -0.004  -0.014   0.490   0.472
    9       -0.017  -0.037   0.705   0.650
   10       -0.015  -0.036   0.744   0.692
   11       -0.014  -0.019   0.743   0.711
   12       -0.017  -0.039   0.685   0.629
   13       -0.020  -0.038   0.699   0.642
   14       -0.009  -0.020   0.438   0.410
   15       -0.012  -0.036   0.687   0.639
   16       -0.016  -0.020   0.724   0.687
   17       -0.019  -0.039   0.658   0.600
   18       -0.014  -0.031   0.626   0.580
   19       -0.014  -0.035   0.626   0.576
   20       -0.023  -0.035   0.715   0.657
   21       -0.010  -0.020   0.547   0.518
   22       -0.023  -0.052   0.751   0.676
   23       -0.018  -0.041   0.718   0.660
   24       -0.025  -0.036   0.730   0.670
   25       -0.013  -0.025   0.518   0.479
   26       -0.007  -0.027   0.690   0.656
   27       -0.013  -0.032   0.672   0.627
   28       -0.014  -0.031   0.687   0.641
   29       -0.007  -0.017   0.542   0.518
   30       -0.016  -0.039   0.718   0.663
   31       -0.013  -0.035   0.693   0.645
   32       -0.019  -0.025   0.762   0.719
   33       -0.014  -0.032   0.697   0.652
   34       -0.020  -0.037   0.665   0.608
   35       -0.011  -0.024   0.563   0.528
   36       -0.024  -0.049   0.702   0.629
   37       -0.009  -0.031   0.701   0.661
   38       -0.013  -0.020   0.744   0.711
   39       -0.022  -0.045   0.725   0.659
   40       -0.013  -0.026   0.672   0.634
   41       -0.004  -0.011   0.498   0.483
   42       -0.017  -0.029   0.664   0.617
   43       -0.010  -0.015   0.453   0.428
   44       -0.017  -0.036   0.722   0.669
   45       -0.016  -0.040   0.680   0.625
   46       -0.013  -0.028   0.665   0.624
   47       -0.004  -0.011   0.429   0.414
   48       -0.015  -0.039   0.724   0.671
   49       -0.013  -0.031   0.674   0.630
   50        0.004  -0.012   2.776   2.768
   51        0.001  -0.017   2.711   2.695
   52        0.001  -0.021   2.761   2.741
   53        0.003  -0.019   2.665   2.649
   54        0.013  -0.009   2.887   2.891
   55        0.014  -0.000   2.698   2.712
   56       -0.006  -0.033   2.628   2.588
   57        0.011  -0.011   2.892   2.892
   58        0.020   0.008   2.735   2.762
   59       -0.005  -0.029   2.679   2.646
   60        0.002  -0.021   2.730   2.711
   61        0.004  -0.011   2.799   2.793
   62        0.001  -0.015   2.761   2.747
   63        0.018  -0.008   2.932   2.941
   64        0.020   0.008   2.727   2.754
   65        0.002   0.068   0.000   0.070
   66        0.002   0.088   0.000   0.090
   67        0.002   0.081   0.000   0.083
   68        0.002   0.087   0.000   0.089
--------------------------------------------------
tot         -0.593  -1.375  73.534  71.566
 
 BZINTS: Fermi energy:  0.263583;634.000000 electrons
         Band energy:***********;  BLOECHL correction: -0.038236

 total amount of memory used by VASP MPI-rank0   256287. kBytes
=======================================================================

   base      :      30000. kBytes
   nonlr-proj:      13713. kBytes
   fftplans  :       6403. kBytes
   grid      :      17692. kBytes
   one-center:         93. kBytes
   wavefun   :     188386. kBytes
 
  
  
 General timing and accounting informations for this job:
 ========================================================
  
                  Total CPU time used (sec):     2221.709
                            User time (sec):     2125.847
                          System time (sec):       95.862
                         Elapsed time (sec):     2227.325
  
                   Maximum memory used (kb):      509904.
                   Average memory used (kb):           0.
  
                          Minor page faults:     22820599
                          Major page faults:           32
                 Voluntary context switches:         3704
