       N       E                     dE             d eps       ncg     rms          rms(c)
DAV:   1     0.826951839288E+04    0.82695E+04   -0.36804E+05 71448   0.185E+03
DAV:   2     0.338350830167E+03   -0.79312E+04   -0.74355E+04 71448   0.390E+02
DAV:   3    -0.736863672905E+03   -0.10752E+04   -0.82148E+03 71448   0.180E+02
DAV:   4    -0.807298346313E+03   -0.70435E+02   -0.66941E+02 75594   0.550E+01
DAV:   5    -0.808227549561E+03   -0.92920E+00   -0.92718E+00 76953   0.620E+00
RMM:   6    -0.808256048487E+03   -0.28499E-01   -0.28499E-01 77538   0.851E-01
RMM:   7    -0.808263620759E+03   -0.75723E-02   -0.75449E-02109674   0.280E-01
RMM:   8    -0.808263673561E+03   -0.52802E-04   -0.87740E-04 97544   0.435E-02
RMM:   9    -0.808263683958E+03   -0.10397E-04   -0.10184E-04 94653   0.116E-02
RMM:  10    -0.808263684495E+03   -0.53667E-06   -0.54967E-06 66147   0.273E-03
   1 F= -.80826368E+03 E0= -.80826368E+03  d E =0.000000E+00  mag=   212.8074
