 vasp.5.4.4.18Apr17-6-g9f103f2a35 (build Sep 06 2021 19:49:22) complex          
  
 executed on             LinuxIFC date 2021.12.30  12:22:36
 running on   96 total cores
 distrk:  each k-point on   96 cores,    1 groups
 distr:  one band on NCORES_PER_BAND=  32 cores,    3 groups


--------------------------------------------------------------------------------------------------------


 INCAR:
 POTCAR:    PAW_PBE Fe 06Sep2000                  
 POTCAR:    PAW_PBE Ni 02Aug2007                  

 ----------------------------------------------------------------------------- 
|                                                                             |
|           W    W    AA    RRRRR   N    N  II  N    N   GGGG   !!!           |
|           W    W   A  A   R    R  NN   N  II  NN   N  G    G  !!!           |
|           W    W  A    A  R    R  N N  N  II  N N  N  G       !!!           |
|           W WW W  AAAAAA  RRRRR   N  N N  II  N  N N  G  GGG   !            |
|           WW  WW  A    A  R   R   N   NN  II  N   NN  G    G                |
|           W    W  A    A  R    R  N    N  II  N    N   GGGG   !!!           |
|                                                                             |
|      For optimal performance we recommend to set                            |
|        NCORE= 4 - approx SQRT( number of cores)                             |
|      NCORE specifies how many cores store one orbital (NPAR=cpu/NCORE).     |
|      This setting can  greatly improve the performance of VASP for DFT.     |
|      The default,   NCORE=1            might be grossly inefficient         |
|      on modern multi-core architectures or massively parallel machines.     |
|      Do your own testing !!!!                                               |
|      Unfortunately you need to use the default for GW and RPA calculations. |
|      (for HF NCORE is supported but not extensively tested yet)             |
|                                                                             |
 ----------------------------------------------------------------------------- 

 POTCAR:    PAW_PBE Fe 06Sep2000                  
   VRHFIN =Fe:  d7 s1                                                           
   LEXCH  = PE                                                                  
   EATOM  =   594.3153 eV,   43.6809 Ry                                         
                                                                                
   TITEL  = PAW_PBE Fe 06Sep2000                                                
   LULTRA =        F    use ultrasoft PP ?                                      
   IUNSCR =        1    unscreen: 0-lin 1-nonlin 2-no                           
   RPACOR =    2.000    partial core radius                                     
   POMASS =   55.847; ZVAL   =    8.000    mass and valenz                      
   RCORE  =    2.300    outmost cutoff radius                                   
   RWIGS  =    2.460; RWIGS  =    1.302    wigner-seitz radius (au A)           
   ENMAX  =  267.882; ENMIN  =  200.911 eV                                      
   RCLOC  =    1.701    cutoff for local pot                                    
   LCOR   =        T    correct aug charges                                     
   LPAW   =        T    paw PP                                                  
   EAUG   =  511.368                                                            
   DEXC   =    0.000                                                            
   RMAX   =    2.356    core radius for proj-oper                               
   RAUG   =    1.300    factor for augmentation sphere                          
   RDEP   =    2.442    radius for radial grids                                 
   RDEPT  =    1.890    core radius for aug-charge                              
                                                                                
   Atomic configuration                                                         
    9 entries                                                                   
     n  l   j            E        occ.                                          
     1  0  0.50     -6993.8440   2.0000                                         
     2  0  0.50      -814.6047   2.0000                                         
     2  1  1.50      -693.3689   6.0000                                         
     3  0  0.50       -89.4732   2.0000                                         
     3  1  1.50       -55.6373   6.0000                                         
     3  2  2.50        -3.8151   7.0000                                         
     4  0  0.50        -4.2551   1.0000                                         
     4  1  1.50        -3.4015   0.0000                                         
     4  3  2.50        -1.3606   0.0000                                         
   Description                                                                  
     l       E           TYP  RCUT    TYP  RCUT                                 
     2     -3.8151135     23  2.300                                             
     2     -5.1756961     23  2.300                                             
     0     -4.2550963     23  2.300                                             
     0      7.2035603     23  2.300                                             
     1     -2.7211652     23  2.300                                             
     1     18.4316424     23  2.300                                             
  local pseudopotential read in
  partial core-charges read in
  partial kinetic energy density read in
  atomic valenz-charges read in
  non local Contribution for L=           2  read in
    real space projection operators read in
  non local Contribution for L=           2  read in
    real space projection operators read in
  non local Contribution for L=           0  read in
    real space projection operators read in
  non local Contribution for L=           0  read in
    real space projection operators read in
  non local Contribution for L=           1  read in
    real space projection operators read in
  non local Contribution for L=           1  read in
    real space projection operators read in
    PAW grid and wavefunctions read in
 
   number of l-projection  operators is LMAX  =           6
   number of lm-projection operators is LMMAX =          18
 
 POTCAR:    PAW_PBE Ni 02Aug2007                  
   VRHFIN =Ni:                                                                  
   LEXCH  = PE                                                                  
   EATOM  =  1077.6739 eV,   79.2068 Ry                                         
                                                                                
   TITEL  = PAW_PBE Ni 02Aug2007                                                
   LULTRA =        F    use ultrasoft PP ?                                      
   IUNSCR =        1    unscreen: 0-lin 1-nonlin 2-no                           
   RPACOR =    2.000    partial core radius                                     
   POMASS =   58.690; ZVAL   =   10.000    mass and valenz                      
   RCORE  =    2.300    outmost cutoff radius                                   
   RWIGS  =    2.430; RWIGS  =    1.286    wigner-seitz radius (au A)           
   ENMAX  =  269.532; ENMIN  =  202.149 eV                                      
   RCLOC  =    1.201    cutoff for local pot                                    
   LCOR   =        T    correct aug charges                                     
   LPAW   =        T    paw PP                                                  
   EAUG   =  544.565                                                            
   DEXC   =    0.000                                                            
   RMAX   =    2.357    core radius for proj-oper                               
   RAUG   =    1.300    factor for augmentation sphere                          
   RDEP   =    2.390    radius for radial grids                                 
   RDEPT  =    1.838    core radius for aug-charge                              
                                                                                
   Atomic configuration                                                         
    9 entries                                                                   
     n  l   j            E        occ.                                          
     1  0  0.50     -8206.4253   2.0000                                         
     2  0  0.50      -976.1748   2.0000                                         
     2  1  1.50      -839.0571   6.0000                                         
     3  0  0.50      -105.9991   2.0000                                         
     3  1  1.50       -66.4603   6.0000                                         
     3  2  2.50        -4.6458   9.0000                                         
     4  0  0.50        -4.4926   1.0000                                         
     4  1  1.50        -4.0817   0.0000                                         
     4  3  2.50        -1.3606   0.0000                                         
   Description                                                                  
     l       E           TYP  RCUT    TYP  RCUT                                 
     2     -4.6457903     23  2.300                                             
     2     -6.0063729     23  2.300                                             
     0     -4.4925590     23  2.300                                             
     0      5.0102601     23  2.300                                             
     1     -2.7211652     23  2.300                                             
     1     16.5183231     23  2.300                                             
  local pseudopotential read in
  partial core-charges read in
  partial kinetic energy density read in
  atomic valenz-charges read in
  non local Contribution for L=           2  read in
    real space projection operators read in
  non local Contribution for L=           2  read in
    real space projection operators read in
  non local Contribution for L=           0  read in
    real space projection operators read in
  non local Contribution for L=           0  read in
    real space projection operators read in
  non local Contribution for L=           1  read in
    real space projection operators read in
  non local Contribution for L=           1  read in
    real space projection operators read in
    PAW grid and wavefunctions read in
 
   number of l-projection  operators is LMAX  =           6
   number of lm-projection operators is LMMAX =          18
 
 Optimization of the real space projectors (new method)

 maximal supplied QI-value         = 16.25
 optimisation between [QCUT,QGAM] = [ 11.54, 23.24] = [ 37.28,151.24] Ry 
 Optimized for a Real-space Cutoff    1.53 Angstroem

   l    n(q)    QCUT    max X(q) W(low)/X(q) W(high)/X(q)  e(spline) 
   2     10    11.539    80.901    0.11E-03    0.14E-03    0.21E-06
   2     10    11.539    75.754    0.11E-03    0.14E-03    0.22E-06
   0     11    11.539    58.752    0.52E-04    0.18E-04    0.33E-06
   0     11    11.539    30.679    0.44E-04    0.16E-04    0.30E-06
   1     10    11.539    17.977    0.53E-04    0.29E-04    0.13E-06
   1     10    11.539    13.559    0.44E-04    0.25E-04    0.11E-06
 Optimization of the real space projectors (new method)

 maximal supplied QI-value         = 16.25
 optimisation between [QCUT,QGAM] = [ 11.54, 23.24] = [ 37.28,151.24] Ry 
 Optimized for a Real-space Cutoff    1.45 Angstroem

   l    n(q)    QCUT    max X(q) W(low)/X(q) W(high)/X(q)  e(spline) 
   2      9    11.539    60.317    0.19E-03    0.47E-04    0.16E-06
   2      9    11.539    55.921    0.19E-03    0.48E-04    0.16E-06
   0     10    11.539    51.690    0.80E-04    0.50E-04    0.24E-06
   0     10    11.539    30.015    0.73E-04    0.45E-04    0.22E-06
   1     10    11.539    18.849    0.87E-04    0.16E-03    0.71E-07
   1     10    11.539    14.624    0.73E-04    0.13E-03    0.64E-07
  PAW_PBE Fe 06Sep2000                  :
 energy of atom  1       EATOM= -594.3153
 kinetic energy error for atom=    0.0026 (will be added to EATOM!!)
  PAW_PBE Ni 02Aug2007                  :
 energy of atom  2       EATOM=-1077.6739
 kinetic energy error for atom=    0.0030 (will be added to EATOM!!)
 
 
 POSCAR: POSCAR                                  
  positions in direct lattice
  velocities in cartesian coordinates
 exchange correlation table for  LEXCH =        8
   RHO(1)=    0.500       N(1)  =     2000
   RHO(2)=  100.500       N(2)  =     4000
 


--------------------------------------------------------------------------------------------------------


 ion  position               nearest neighbor table
   1  0.129  0.981  0.235-  47 2.47   2 2.48 101 2.49  11 2.51  66 2.51  82 2.51   6 2.52  10 2.52
                            64 2.55  95 2.58   3 2.58  49 2.63
   2  0.383  0.950  0.197-  48 2.48   1 2.48  49 2.51  64 2.53  14 2.53   4 2.54  10 2.56  13 2.56
                             5 2.56  65 2.57  94 2.59   3 2.60
   3  0.158  0.830  0.082-  98 2.47  15 2.47   6 2.47  97 2.51   5 2.52  49 2.53  89 2.53  50 2.56
                            11 2.57  14 2.57   1 2.58   2 2.60
   4  0.642  0.915  0.157-  52 2.49  94 2.50  65 2.51   2 2.54  96 2.54   7 2.55  17 2.55   5 2.56
                            13 2.57   6 2.58  66 2.58  16 2.60
   5  0.417  0.800  0.046-  89 2.46  53 2.50  97 2.50  94 2.51   3 2.52  35 2.53  17 2.55  14 2.56
                             4 2.56   2 2.56  18 2.59   7 2.65
   6  0.908  0.876  0.122-   3 2.47  95 2.48   7 2.49  50 2.50   1 2.52  66 2.53  96 2.54  16 2.55
                             4 2.58  19 2.58  98 2.59  11 2.61
   7  0.692  0.769  0.010-  96 2.47  35 2.48  98 2.49   6 2.49  90 2.50  56 2.52  17 2.53   4 2.55
                            53 2.55  19 2.59  67 2.60   5 2.65
   8  0.251  0.967  0.463-  10 2.44 101 2.46  23 2.48  82 2.49  73 2.49  64 2.50  74 2.51  24 2.52
                             9 2.53  61 2.54  83 2.54  76 2.59
   9  0.509  0.927  0.423-  10 2.36  64 2.43  13 2.49  26 2.49  23 2.51   8 2.53  12 2.53  76 2.54
                            65 2.54  25 2.56  63 2.57  77 2.58
  10  0.298  0.821  0.323-   9 2.36  24 2.44   8 2.44  26 2.45  64 2.49  13 2.52   1 2.52  11 2.54
                            82 2.55   2 2.56  14 2.58  27 2.63
  11  0.077  0.705  0.211-  82 2.49  31 2.50   1 2.51  14 2.51  27 2.52  16 2.54  10 2.54  85 2.55
                             3 2.57  19 2.57  15 2.57   6 2.61
  12  0.769  0.886  0.388-  13 2.47  77 2.50  65 2.50  16 2.52  86 2.52  28 2.53   9 2.53  25 2.54
                            74 2.54  66 2.54  82 2.55 102 2.57
  13  0.552  0.779  0.279-  26 2.45  12 2.47  14 2.48   9 2.49  10 2.52  29 2.55  16 2.55  86 2.56
                             2 2.56  65 2.56   4 2.57  17 2.59
  14  0.334  0.670  0.171-  13 2.48  27 2.48  11 2.51   2 2.53  15 2.55  29 2.55   5 2.56  17 2.57
                             3 2.57  87 2.57  10 2.58  18 2.59
  15  0.111  0.557  0.058-  19 2.45   3 2.47  18 2.47  30 2.50  97 2.51  85 2.52  87 2.53  14 2.55
                            98 2.55  70 2.56 103 2.57  11 2.57
  16  0.813  0.741  0.242-  12 2.52  86 2.52  82 2.53  66 2.54  32 2.54  17 2.54  11 2.54  13 2.55
                             6 2.55  31 2.57  19 2.58   4 2.60
  17  0.593  0.634  0.126-  67 2.50   7 2.53  29 2.54  16 2.54   5 2.55   4 2.55  14 2.57  33 2.57
                            18 2.58  19 2.58  13 2.59  32 2.60
  18  0.362  0.515  0.019-  15 2.47  87 2.48 103 2.48  33 2.50 106 2.50  97 2.50  53 2.54  68 2.55
                            17 2.58  14 2.59   5 2.59  67 2.62
  19  0.859  0.592  0.092-  15 2.45  98 2.51  88 2.51  32 2.53  85 2.53  67 2.54  70 2.54  11 2.57
                            16 2.58   6 2.58  17 2.58   7 2.59
  20  0.121  0.972  0.730- 108 2.48  84 2.48  37 2.49  83 2.50 105 2.50  34 2.53  69 2.54  21 2.54
                            73 2.58  36 2.59  78 2.59  80 2.62
  21  0.384  0.947  0.695-  38 2.49  73 2.50  80 2.51  22 2.52  23 2.53  20 2.54  91 2.55  72 2.55
                            83 2.58  36 2.58  81 2.59  76 2.61
  22  0.642  0.913  0.658-  81 2.49 104 2.50  76 2.51  21 2.52  25 2.52  40 2.53  84 2.53  91 2.54
                            77 2.54 108 2.55  41 2.55  23 2.57
  23  0.415  0.804  0.544-   8 2.48  83 2.50   9 2.51  24 2.51  25 2.52  21 2.53  76 2.54  38 2.55
                            42 2.55  22 2.57  26 2.57  41 2.62
  24  0.198  0.690  0.432-  10 2.44  82 2.46  31 2.48  23 2.51  39 2.51   8 2.52  83 2.53  26 2.57
                            27 2.58  28 2.58  43 2.60  42 2.61
  25  0.675  0.760  0.511-  26 2.50  41 2.50  77 2.52  23 2.52  45 2.52  22 2.52  28 2.53  12 2.54
                            84 2.54   9 2.56  44 2.59  86 2.60
  26  0.462  0.652  0.395-  13 2.45  10 2.45  42 2.49   9 2.49  25 2.50  27 2.50  86 2.54  24 2.57
                            46 2.57  23 2.57  29 2.58  45 2.61
  27  0.246  0.532  0.285-  87 2.48  14 2.48  43 2.50  26 2.50  85 2.50  11 2.52  46 2.52  47 2.55
                            29 2.56  24 2.58  31 2.59  10 2.63
  28  0.935  0.721  0.474-  44 2.48  86 2.49  84 2.50  83 2.51  74 2.53  12 2.53  25 2.53  92 2.54
                            82 2.56  39 2.56  31 2.56  24 2.58
  29  0.508  0.498  0.247-  32 2.49  86 2.50  33 2.51  46 2.52  48 2.53  93 2.53  17 2.54  13 2.55
                            87 2.55  14 2.55  27 2.56  26 2.58
  30  0.056  0.282  0.031-  88 2.47  85 2.48  87 2.49  15 2.50  49 2.51  95 2.52 103 2.52  70 2.53
                           106 2.54  78 2.55 107 2.56  50 2.57
  31  0.982  0.571  0.326-  24 2.48  92 2.48  11 2.50  86 2.51  32 2.52  51 2.53  85 2.53  43 2.54
                            28 2.56  82 2.56  16 2.57  27 2.59
  32  0.764  0.462  0.212-  29 2.49  85 2.50  52 2.50  93 2.51  88 2.52  31 2.52  19 2.53  16 2.54
                            86 2.54  51 2.55  33 2.59  17 2.60
  33  0.535  0.352  0.098-  79 2.49 106 2.50  18 2.50  67 2.51  29 2.51  87 2.52  94 2.53  52 2.53
                            48 2.54  88 2.56  17 2.57  32 2.59
  34  0.035  0.846  0.854-  98 2.45  99 2.48  90 2.49  97 2.50  89 2.50  40 2.53  20 2.53  36 2.54
                            50 2.55  78 2.56 108 2.58  37 2.58
  35  0.521  0.926  0.928-   7 2.48  94 2.48  80 2.49  91 2.49  96 2.50  53 2.52   5 2.53  90 2.53
                            79 2.53  36 2.55  81 2.55  89 2.58
  36  0.297  0.809  0.818-  89 2.50  97 2.50  53 2.50  38 2.51  91 2.51  80 2.52  54 2.53  34 2.54
                            35 2.55  21 2.58  20 2.59  37 2.60
  37  0.070  0.698  0.701-  44 2.49  20 2.49  38 2.51  83 2.51  55 2.52  99 2.53  84 2.55  40 2.55
                            39 2.57  34 2.58  54 2.60  36 2.60
  38  0.331  0.673  0.668-  21 2.49  37 2.51  36 2.51  41 2.52  83 2.53  58 2.53  23 2.55  91 2.55
                            57 2.57  39 2.57  42 2.63  54 2.63
  39  0.113  0.551  0.550-  92 2.49  24 2.51  43 2.52  59 2.54  83 2.54  28 2.56  58 2.56  37 2.57
                            42 2.57  55 2.57  38 2.57  44 2.58
  40  0.811  0.747  0.740-  84 2.46 108 2.49  90 2.50  56 2.50  91 2.52  41 2.52  22 2.53  34 2.53
                            37 2.55  60 2.56  44 2.57  99 2.62
  41  0.589  0.632  0.631-  42 2.49  57 2.49  25 2.50 100 2.51  38 2.52  40 2.52  91 2.54  22 2.55
                            44 2.57  60 2.58  23 2.62  45 2.63
  42  0.379  0.522  0.515-  41 2.49  26 2.49  45 2.53  61 2.54  23 2.55  46 2.55  43 2.56  58 2.57
                            39 2.57 100 2.57  24 2.61  38 2.63
  43  0.156  0.402  0.404-  61 2.49  27 2.50 101 2.51  39 2.52  51 2.53  47 2.54  31 2.54  46 2.55
                            42 2.56  59 2.57  92 2.58  24 2.60
  44  0.851  0.588  0.592-  45 2.48  28 2.48  37 2.49  60 2.49  62 2.53  92 2.55  84 2.55  40 2.57
                            41 2.57  39 2.58  55 2.58  25 2.59
  45  0.638  0.481  0.478-  86 2.45  92 2.47  44 2.48  63 2.50  93 2.51  25 2.52  46 2.52  42 2.53
                           100 2.55  62 2.57  26 2.61  41 2.63
  46  0.417  0.368  0.367-  48 2.49  63 2.50  64 2.50  93 2.50  29 2.52  27 2.52  45 2.52  43 2.55
                            42 2.55  26 2.57  61 2.58  47 2.61
  47  0.186  0.252  0.255-   1 2.47  95 2.49  87 2.50  85 2.51  48 2.53  49 2.53  43 2.54  64 2.54
                            27 2.55  51 2.56 101 2.57  46 2.61
  48  0.448  0.221  0.220-   2 2.48  46 2.49  65 2.52  94 2.52  87 2.53  52 2.53  29 2.53  47 2.53
                            33 2.54  93 2.56  49 2.59  64 2.60
  49  0.221  0.106  0.105-  89 2.45 106 2.47  94 2.49   2 2.51  30 2.51  50 2.53   3 2.53  47 2.53
                            87 2.56  95 2.58  48 2.59   1 2.63
  50  0.991  0.002  0.999-  96 2.45  90 2.46 107 2.48  78 2.49   6 2.50  95 2.52  49 2.53  98 2.54
                            34 2.55   3 2.56  30 2.57  89 2.58
  51  0.927  0.293  0.298-  93 2.46  66 2.48 101 2.49  92 2.49 102 2.50  95 2.51  31 2.53  43 2.53
                            85 2.54  32 2.55  47 2.56  52 2.57
  52  0.705  0.187  0.180-  96 2.45  95 2.47   4 2.49  88 2.49  32 2.50  48 2.53  33 2.53  93 2.55
                            94 2.56  51 2.57  66 2.60  65 2.60
  53  0.465  0.649  0.903-  67 2.49  36 2.50   5 2.50  35 2.52  57 2.53  18 2.54  97 2.55   7 2.55
                            54 2.56  91 2.56  56 2.57  68 2.60
  54  0.240  0.532  0.792- 103 2.47  99 2.48  97 2.50  68 2.51  55 2.51  36 2.53  53 2.56  69 2.56
                            57 2.57  58 2.58  37 2.60  38 2.63
  55  0.027  0.420  0.675-  75 2.51  54 2.51  37 2.52  59 2.53  58 2.53  69 2.53  62 2.54 105 2.55
                            60 2.57  39 2.57  99 2.58  44 2.58
  56  0.728  0.620  0.862-  98 2.45  90 2.48  40 2.50  99 2.52  91 2.52  57 2.52   7 2.52  70 2.55
                            60 2.56  67 2.56  53 2.57  71 2.58
  57  0.504  0.507  0.753-  41 2.49  91 2.51  58 2.52  71 2.52  56 2.52  53 2.53  60 2.56  72 2.56
                            54 2.57  38 2.57  68 2.59 100 2.59
  58  0.288  0.392  0.639-  61 2.50  72 2.52  57 2.52 100 2.53  55 2.53  38 2.53  39 2.56  42 2.57
                            54 2.58  73 2.59  69 2.63  59 2.63
  59  0.056  0.272  0.526- 101 2.47 102 2.50  74 2.50  62 2.50  73 2.51  92 2.52  55 2.53  61 2.53
                            39 2.54 105 2.57  43 2.57  58 2.63
  60  0.765  0.464  0.714- 100 2.49  44 2.49  99 2.50  71 2.51  75 2.52 104 2.54  62 2.55  56 2.56
                            57 2.56  40 2.56  55 2.57  41 2.58
  61  0.318  0.244  0.492-  64 2.48  76 2.48  43 2.49  58 2.50  59 2.53   8 2.54  42 2.54  63 2.55
                            73 2.56 100 2.57 101 2.58  46 2.58
  62  0.801  0.309  0.565- 100 2.49 104 2.49 105 2.50  63 2.50 102 2.50  59 2.50  77 2.51  44 2.53
                            55 2.54  92 2.55  60 2.55  45 2.57
  63  0.580  0.207  0.454- 102 2.48  46 2.50  65 2.50  45 2.50  62 2.50  76 2.50  77 2.51 100 2.52
                            64 2.52  93 2.54  61 2.55   9 2.57
  64  0.353  0.095  0.347-   9 2.43  61 2.48  10 2.49  46 2.50   8 2.50  63 2.52   2 2.53 101 2.53
                            47 2.54  65 2.55   1 2.55  48 2.60
  65  0.614  0.059  0.307- 102 2.49  93 2.49  63 2.50  12 2.50   4 2.51  66 2.51  48 2.52   9 2.54
                            64 2.55  13 2.56   2 2.57  52 2.60
  66  0.872  0.020  0.272- 101 2.48 102 2.48  51 2.48  82 2.49   1 2.51  65 2.51   6 2.53  16 2.54
                            12 2.54  95 2.56   4 2.58  52 2.60
  67  0.632  0.484  0.981-  53 2.49  17 2.50  33 2.51  88 2.52  71 2.53  19 2.54  70 2.54  79 2.54
                            56 2.56  68 2.56   7 2.60  18 2.62
  68  0.407  0.364  0.871- 106 2.49  54 2.51  69 2.52  79 2.53  80 2.53 103 2.54  72 2.54  18 2.55
                            71 2.56  67 2.56  57 2.59  53 2.60
  69  0.188  0.249  0.760-  73 2.49  75 2.51  80 2.51  68 2.52  55 2.53  20 2.54  78 2.54 105 2.55
                           103 2.56  54 2.56  72 2.57  58 2.63
  70  0.891  0.443  0.942- 103 2.48  99 2.49  71 2.49 107 2.50  88 2.52  98 2.53  30 2.53  67 2.54
                            19 2.54  75 2.55  56 2.55  15 2.56
  71  0.670  0.336  0.833-  70 2.49  72 2.51  60 2.51 107 2.52  57 2.52  67 2.53 104 2.54  79 2.54
                            81 2.55  75 2.55  68 2.56  56 2.58
  72  0.452  0.225  0.722- 104 2.50  71 2.51  76 2.51  58 2.52 100 2.53  68 2.54  81 2.54  21 2.55
                            57 2.56  69 2.57  73 2.60  80 2.64
  73  0.220  0.110  0.611-  69 2.49   8 2.49  21 2.50  59 2.51 105 2.53  83 2.54  61 2.56  76 2.57
                            74 2.57  20 2.58  58 2.59  72 2.60
  74  0.993  0.999  0.499-  77 2.47  82 2.49 102 2.49  59 2.50 105 2.51   8 2.51  83 2.52  28 2.53
                           101 2.53  84 2.54  12 2.54  73 2.57
  75  0.930  0.292  0.793- 105 2.48 108 2.49 104 2.50  69 2.51  55 2.51 107 2.52  60 2.52 103 2.53
                            78 2.54  70 2.55  71 2.55  99 2.56
  76  0.484  0.080  0.573-  61 2.48  63 2.50  77 2.51  22 2.51 100 2.51  72 2.51 104 2.53   9 2.54
                            23 2.54  73 2.57   8 2.59  21 2.61
  77  0.739  0.035  0.535-  74 2.47  12 2.50  76 2.51  62 2.51  84 2.51  63 2.51  25 2.52 102 2.52
                           105 2.53  22 2.54 104 2.54   9 2.58
  78  0.092  0.127  0.883- 107 2.49  89 2.49  50 2.49 106 2.50 103 2.52  69 2.54  75 2.54 108 2.54
                            80 2.54  30 2.55  34 2.56  20 2.59
  79  0.581  0.204  0.954-  96 2.46  33 2.49  88 2.49 107 2.49  94 2.52  81 2.52  68 2.53  35 2.53
                            67 2.54  71 2.54  80 2.57 106 2.59
  80  0.352  0.086  0.845-  89 2.49  35 2.49 106 2.51  21 2.51  69 2.51  36 2.52  68 2.53  78 2.54
                            79 2.57  81 2.57  20 2.62  72 2.64
  81  0.616  0.056  0.807-  90 2.48 108 2.48  22 2.49  91 2.49 107 2.50  79 2.52 104 2.54  72 2.54
                            35 2.55  71 2.55  80 2.57  21 2.59
  82  0.033  0.853  0.354-  24 2.46  74 2.49   8 2.49  11 2.49  66 2.49 101 2.50   1 2.51  16 2.53
                            10 2.55  12 2.55  28 2.56  31 2.56
  83  0.158  0.832  0.582-  20 2.50  23 2.50  28 2.51  37 2.51  74 2.52  84 2.52  24 2.53  38 2.53
                            73 2.54   8 2.54  39 2.54  21 2.58
  84  0.901  0.869  0.621-  40 2.46  20 2.48 105 2.49  28 2.50  77 2.51 108 2.51  83 2.52  22 2.53
                            74 2.54  25 2.54  37 2.55  44 2.55
  85  0.022  0.425  0.178-  30 2.48  32 2.50  27 2.50  47 2.51  95 2.51  87 2.52  15 2.52  31 2.53
                            19 2.53  51 2.54  88 2.55  11 2.55
  86  0.723  0.608  0.361-  45 2.45  28 2.49  29 2.50  93 2.50  31 2.51  12 2.52  16 2.52  92 2.53
                            26 2.54  32 2.54  13 2.56  25 2.60
  87  0.279  0.388  0.139-  18 2.48  27 2.48  30 2.49  47 2.50  85 2.52  33 2.52  48 2.53  15 2.53
                           106 2.53  29 2.55  49 2.56  14 2.57
  88  0.800  0.317  0.063-  30 2.47  79 2.49  52 2.49  19 2.51  96 2.51 107 2.51  70 2.52  95 2.52
                            32 2.52  67 2.52  85 2.55  33 2.56
  89  0.254  0.959  0.962-  49 2.45   5 2.46  78 2.49  80 2.49  36 2.50  34 2.50  94 2.52  97 2.52
                             3 2.53 106 2.55  50 2.58  35 2.58
  90  0.779  0.892  0.888-  50 2.46  81 2.48  56 2.48  34 2.49 108 2.50   7 2.50  40 2.50  91 2.51
                           107 2.52  35 2.53  98 2.54  96 2.54
  91  0.555  0.783  0.780-  35 2.49  81 2.49  57 2.51  90 2.51  36 2.51  40 2.52  56 2.52  22 2.54
                            41 2.54  21 2.55  38 2.55  53 2.56
  92  0.891  0.441  0.443-  45 2.47  31 2.48  93 2.49  51 2.49  39 2.49 102 2.50  59 2.52  86 2.53
                            28 2.54  44 2.55  62 2.55  43 2.58
  93  0.675  0.332  0.332-  51 2.46  92 2.49  65 2.49 102 2.50  86 2.50  46 2.50  32 2.51  45 2.51
                            29 2.53  63 2.54  52 2.55  48 2.56
  94  0.477  0.074  0.070- 106 2.47  35 2.48  49 2.49   4 2.50   5 2.51  79 2.52  89 2.52  48 2.52
                            33 2.53  96 2.54  52 2.56   2 2.59
  95  0.960  0.150  0.148-  52 2.47   6 2.48  47 2.49  96 2.51  85 2.51  51 2.51  30 2.52  88 2.52
                            50 2.52  66 2.56  49 2.58   1 2.58
  96  0.740  0.041  0.036-  50 2.45  52 2.45  79 2.46   7 2.47  35 2.50  88 2.51  95 2.51 107 2.53
                             6 2.54   4 2.54  94 2.54  90 2.54
  97  0.200  0.682  0.936-  99 2.48  54 2.50  34 2.50  98 2.50  36 2.50   5 2.50  18 2.50  15 2.51
                             3 2.51  89 2.52 103 2.52  53 2.55
  98  0.944  0.722  0.971-  56 2.45  34 2.45   3 2.47   7 2.49  97 2.50  19 2.51  99 2.51  70 2.53
                            90 2.54  50 2.54  15 2.55   6 2.59
  99  0.984  0.573  0.825-  34 2.48  54 2.48  97 2.48  70 2.49  60 2.50  98 2.51 103 2.52  56 2.52
                            37 2.53  75 2.56  55 2.58  40 2.62
 100  0.548  0.355  0.603-  62 2.49  60 2.49 104 2.50  41 2.51  76 2.51  63 2.52  72 2.53  58 2.53
                            45 2.55  42 2.57  61 2.57  57 2.59
 101  0.091  0.128  0.380-   8 2.46  59 2.47  66 2.48   1 2.49  51 2.49  82 2.50 102 2.51  43 2.51
                            74 2.53  64 2.53  47 2.57  61 2.58
 102  0.833  0.166  0.417-  66 2.48  63 2.48  65 2.49  74 2.49  93 2.50  59 2.50  51 2.50  92 2.50
                            62 2.50 101 2.51  77 2.52  12 2.57
 103  0.147  0.404  0.908-  54 2.47  70 2.48  18 2.48 106 2.52  30 2.52  99 2.52  78 2.52  97 2.52
                            75 2.53  68 2.54  69 2.56  15 2.57
 104  0.707  0.185  0.685- 105 2.48  62 2.49  72 2.50  75 2.50  22 2.50 100 2.50 108 2.50  76 2.53
                            60 2.54  71 2.54  81 2.54  77 2.54
 105  0.961  0.142  0.649- 108 2.48  75 2.48 104 2.48  84 2.49  62 2.50  20 2.50  74 2.51  73 2.53
                            77 2.53  55 2.55  69 2.55  59 2.57
 106  0.314  0.239  0.990-  94 2.47  49 2.47  68 2.49  33 2.50  78 2.50  18 2.50  80 2.51 103 2.52
                            87 2.53  30 2.54  89 2.55  79 2.59
 107  0.835  0.169  0.915-  50 2.48  78 2.49  79 2.49  81 2.50  70 2.50 108 2.51  88 2.51  90 2.52
                            71 2.52  75 2.52  96 2.53  30 2.56
 108  0.870  0.019  0.768-  20 2.48 105 2.48  81 2.48  75 2.49  40 2.49  90 2.50 104 2.50  84 2.51
                           107 2.51  78 2.54  22 2.55  34 2.58
 

IMPORTANT INFORMATION: All symmetrisations will be switched off!
NOSYMM: (Re-)initialisation of all symmetry stuff for point group C_1.

 
 

Automatic generation of k-mesh.
 generate k-points for:    4    4    3
Space group operators:
 irot       det(A)        alpha          n_x          n_y          n_z        tau_x        tau_y        tau_z
    1     1.000000     0.000000     1.000000     0.000000     0.000000     0.000000     0.000000     0.000000
 
 Subroutine IBZKPT returns following result:
 ===========================================
 
 Found     26 irreducible k-points:
 
 Following reciprocal coordinates:
            Coordinates               Weight
  0.000000  0.000000  0.000000      1.000000
  0.250000  0.000000  0.000000      2.000000
  0.500000  0.000000  0.000000      1.000000
  0.000000  0.250000  0.000000      2.000000
  0.250000  0.250000  0.000000      2.000000
  0.500000  0.250000  0.000000      2.000000
 -0.250000  0.250000  0.000000      2.000000
  0.000000  0.500000  0.000000      1.000000
  0.250000  0.500000  0.000000      2.000000
  0.500000  0.500000  0.000000      1.000000
  0.000000  0.000000  0.333333      2.000000
  0.250000  0.000000  0.333333      2.000000
  0.500000  0.000000  0.333333      2.000000
 -0.250000  0.000000  0.333333      2.000000
  0.000000  0.250000  0.333333      2.000000
  0.250000  0.250000  0.333333      2.000000
  0.500000  0.250000  0.333333      2.000000
 -0.250000  0.250000  0.333333      2.000000
  0.000000  0.500000  0.333333      2.000000
  0.250000  0.500000  0.333333      2.000000
  0.500000  0.500000  0.333333      2.000000
 -0.250000  0.500000  0.333333      2.000000
  0.000000 -0.250000  0.333333      2.000000
  0.250000 -0.250000  0.333333      2.000000
  0.500000 -0.250000  0.333333      2.000000
 -0.250000 -0.250000  0.333333      2.000000
 
 Following cartesian coordinates:
            Coordinates               Weight
 -0.000000 -0.000000 -0.000000      1.000000
  0.050926 -0.078704 -0.032407      2.000000
  0.101852 -0.157407 -0.064815      1.000000
 -0.078704 -0.060185  0.004630      2.000000
 -0.027778 -0.138889 -0.027778      2.000000
  0.023148 -0.217593 -0.060185      2.000000
 -0.129630  0.018519  0.037037      2.000000
 -0.157407 -0.120370  0.009259      1.000000
 -0.106481 -0.199074 -0.023148      2.000000
 -0.055556 -0.277778 -0.055556      1.000000
 -0.021605  0.003086 -0.077160      2.000000
  0.029321 -0.075617 -0.109568      2.000000
  0.080247 -0.154321 -0.141975      2.000000
 -0.072531  0.081790 -0.044753      2.000000
 -0.100309 -0.057099 -0.072531      2.000000
 -0.049383 -0.135802 -0.104938      2.000000
  0.001543 -0.214506 -0.137346      2.000000
 -0.151235  0.021605 -0.040123      2.000000
 -0.179012 -0.117284 -0.067901      2.000000
 -0.128086 -0.195988 -0.100309      2.000000
 -0.077160 -0.274691 -0.132716      2.000000
 -0.229938 -0.038580 -0.035494      2.000000
  0.057099  0.063272 -0.081790      2.000000
  0.108025 -0.015432 -0.114198      2.000000
  0.158951 -0.094136 -0.146605      2.000000
  0.006173  0.141975 -0.049383      2.000000
 
 TETIRR: Found    144 inequivalent tetrahedra from      288


--------------------------------------------------------------------------------------------------------




 Dimension of arrays:
   k-points           NKPTS =     26   k-points in BZ     NKDIM =     26   number of bands    NBANDS=    687
   number of dos      NEDOS =    301   number of ions     NIONS =    108
   non local maximal  LDIM  =      6   non local SUM 2l+1 LMDIM =     18
   total plane-waves  NPLWV = 588000
   max r-space proj   IRMAX =   7254   max aug-charges    IRDMAX=  17176
   dimension x,y,z NGX =    70 NGY =   70 NGZ =  120
   dimension x,y,z NGXF=   140 NGYF=  140 NGZF=  240
   support grid    NGXF=   140 NGYF=  140 NGZF=  240
   ions per type =              81  27
   NGX,Y,Z   is equivalent  to a cutoff of  12.77, 12.77, 13.15 a.u.
   NGXF,Y,Z  is equivalent  to a cutoff of  25.54, 25.54, 26.31 a.u.

 SYSTEM =  SQS-NiFe                                
 POSCAR =  POSCAR                                  

 Startparameter for this run:
   NWRITE =      2    write-flag & timer
   PREC   = accura    normal or accurate (medium, high low for compatibility)
   ISTART =      0    job   : 0-new  1-cont  2-samecut
   ICHARG =     11    charge: 1-file 2-atom 10-const
   ISPIN  =      2    spin polarized calculation?
   LNONCOLLINEAR =      F non collinear calculations
   LSORBIT =      F    spin-orbit coupling
   INIWAV =      1    electr: 0-lowe 1-rand  2-diag
   LASPH  =      F    aspherical Exc in radial PAW
   METAGGA=      F    non-selfconsistent MetaGGA calc.

 Electronic Relaxation 1
   ENCUT  =  520.0 eV  38.22 Ry    6.18 a.u.  16.95 16.95 28.20*2*pi/ulx,y,z
   ENINI  =  520.0     initial cutoff
   ENAUG  =  544.6 eV  augmentation charge cutoff
   NELM   =    200;   NELMIN=  2; NELMDL= -5     # of ELM steps 
   EDIFF  = 0.1E-05   stopping-criterion for ELM
   LREAL  =      T    real-space projection
   NLSPLINE    = F    spline interpolate recip. space projectors
   LCOMPAT=      F    compatible to vasp.4.4
   GGA_COMPAT  = T    GGA compatible to vasp.4.4-vasp.4.6
   LMAXPAW     = -100 max onsite density
   LMAXMIX     =    2 max onsite mixed and CHGCAR
   VOSKOWN=      0    Vosko Wilk Nusair interpolation
   ROPT   =   -0.00025  -0.00025
 Ionic relaxation
   EDIFFG = -.2E-01   stopping-criterion for IOM
   NSW    =      0    number of steps for IOM
   NBLOCK =      1;   KBLOCK =      1    inner block; outer block 
   IBRION =     -1    ionic relax: 0-MD 1-quasi-New 2-CG
   NFREE  =      0    steps in history (QN), initial steepest desc. (CG)
   ISIF   =      2    stress and relaxation
   IWAVPR =     10    prediction:  0-non 1-charg 2-wave 3-comb
   ISYM   =      0    0-nonsym 1-usesym 2-fastsym
   LCORR  =      T    Harris-Foulkes like correction to forces

   POTIM  = 0.5000    time-step for ionic-motion
   TEIN   =    0.0    initial temperature
   TEBEG  =    0.0;   TEEND  =   0.0 temperature during run
   SMASS  =  -3.00    Nose mass-parameter (am)
   estimated Nose-frequenzy (Omega)   =  0.10E-29 period in steps =****** mass=  -0.190E-26a.u.
   SCALEE = 1.0000    scale energy and forces
   NPACO  =    256;   APACO  = 16.0  distance and # of slots for P.C.
   PSTRESS=    0.0 pullay stress

  Mass of Ions in am
   POMASS =  55.85 58.69
  Ionic Valenz
   ZVAL   =   8.00 10.00
  Atomic Wigner-Seitz radii
   RWIGS  =  -1.00 -1.00
  virtual crystal weights 
   VCA    =   1.00  1.00
   NELECT =     918.0000    total number of electrons
   NUPDOWN=      -1.0000    fix difference up-down

 DOS related values:
   EMIN   =  10.00;   EMAX   =-10.00  energy-range for DOS
   EFERMI =   0.00
   ISMEAR =    -5;   SIGMA  =   0.20  broadening in eV -4-tet -1-fermi 0-gaus

 Electronic relaxation 2 (details)
   IALGO  =     68    algorithm
   LDIAG  =      T    sub-space diagonalisation (order eigenvalues)
   LSUBROT=      F    optimize rotation matrix (better conditioning)
   TURBO    =      0    0=normal 1=particle mesh
   IRESTART =      0    0=no restart 2=restart with 2 vectors
   NREBOOT  =      0    no. of reboots
   NMIN     =      0    reboot dimension
   EREF     =   0.00    reference energy to select bands
   IMIX   =      4    mixing-type and parameters
     AMIX     =   0.40;   BMIX     =  1.00
     AMIX_MAG =   1.60;   BMIX_MAG =  1.00
     AMIN     =   0.10
     WC   =   100.;   INIMIX=   1;  MIXPRE=   1;  MAXMIX= -45

 Intra band minimization:
   WEIMIN = 0.0000     energy-eigenvalue tresh-hold
   EBREAK =  0.36E-09  absolut break condition
   DEPER  =   0.30     relativ break condition  

   TIME   =   0.40     timestep for ELM

  volume/ion in A,a.u.               =      11.42        77.08
  Fermi-wavevector in a.u.,A,eV,Ry     =   1.483514  2.803436 29.943904  2.200815
  Thomas-Fermi vector in A             =   2.597166
 
 Write flags
   LWAVE        =      F    write WAVECAR
   LDOWNSAMPLE  =      F    k-point downsampling of WAVECAR
   LCHARG       =      F    write CHGCAR
   LVTOT        =      F    write LOCPOT, total local potential
   LVHAR        =      F    write LOCPOT, Hartree potential only
   LELF         =      F    write electronic localiz. function (ELF)
   LORBIT       =     11    0 simple, 1 ext, 2 COOP (PROOUT), +10 PAW based schemes


 Dipole corrections
   LMONO  =      F    monopole corrections only (constant potential shift)
   LDIPOL =      F    correct potential (dipole corrections)
   IDIPOL =      0    1-x, 2-y, 3-z, 4-all directions 
   EPSILON=  1.0000000 bulk dielectric constant

 Exchange correlation treatment:
   GGA     =    --    GGA type
   LEXCH   =     8    internal setting for exchange type
   VOSKOWN=      0    Vosko Wilk Nusair interpolation
   LHFCALC =     F    Hartree Fock is set to
   LHFONE  =     F    Hartree Fock one center treatment
   AEXX    =    0.0000 exact exchange contribution

 Linear response parameters
   LEPSILON=     F    determine dielectric tensor
   LRPA    =     F    only Hartree local field effects (RPA)
   LNABLA  =     F    use nabla operator in PAW spheres
   LVEL    =     F    velocity operator in full k-point grid
   LINTERFAST=   F  fast interpolation
   KINTER  =     0    interpolate to denser k-point grid
   CSHIFT  =0.1000    complex shift for real part using Kramers Kronig
   OMEGAMAX=  -1.0    maximum frequency
   DEG_THRESHOLD= 0.2000000E-02 threshold for treating states as degnerate
   RTIME   =   -0.100 relaxation time in fs
  (WPLASMAI=    0.000 imaginary part of plasma frequency in eV, 0.658/RTIME)
   DFIELD  = 0.0000000 0.0000000 0.0000000 field for delta impulse in time
 
 Orbital magnetization related:
   ORBITALMAG=     F  switch on orbital magnetization
   LCHIMAG   =     F  perturbation theory with respect to B field
   DQ        =  0.001000  dq finite difference perturbation B field
   LLRAUG    =     F  two centre corrections for induced B field



--------------------------------------------------------------------------------------------------------


 Static calculation
 charge density and potential remain constant during run
 spin polarized calculation
 RMM-DIIS sequential band-by-band and
  variant of blocked Davidson during initial phase
 perform sub-space diagonalisation
    before iterative eigenvector-optimisation
 no mixing
 using additional bands          228
 real space projection scheme for non local part
 use partial core corrections
 calculate Harris-corrections to forces 
   (improved forces if not selfconsistent)
 use gradient corrections 
 WARNING: stress and forces are not correct
  (second derivative of E(xc) not defined)
 use of overlap-Matrix (Vanderbilt PP)
 Fermi weights with tetrahedron method with Bloechl corrections


--------------------------------------------------------------------------------------------------------


  energy-cutoff  :      520.00
  volume of cell :     1233.65
      direct lattice vectors                 reciprocal lattice vectors
     5.362500000 -7.150000000 -1.787500000     0.056980057 -0.088060088 -0.036260036
    -7.150000000 -5.362500000  1.787500000    -0.088060088 -0.067340067  0.005180005
    -3.575000000  3.575000000-14.300000000    -0.018130018  0.002590003 -0.064750065

  length of vectors
     9.114497381  9.114497381 15.167440456     0.110977909  0.110977909  0.067290241


 
 k-points in units of 2pi/SCALE and weight: read from INCAR                         
  -0.00000000 -0.00000000 -0.00000000       0.021
   0.05092593 -0.07870370 -0.03240741       0.042
   0.10185185 -0.15740741 -0.06481481       0.021
  -0.07870370 -0.06018519  0.00462963       0.042
  -0.02777778 -0.13888889 -0.02777778       0.042
   0.02314815 -0.21759259 -0.06018519       0.042
  -0.12962963  0.01851852  0.03703704       0.042
  -0.15740741 -0.12037037  0.00925926       0.021
  -0.10648148 -0.19907407 -0.02314815       0.042
  -0.05555556 -0.27777778 -0.05555556       0.021
  -0.02160494  0.00308642 -0.07716049       0.042
   0.02932099 -0.07561728 -0.10956790       0.042
   0.08024691 -0.15432099 -0.14197531       0.042
  -0.07253086  0.08179012 -0.04475309       0.042
  -0.10030864 -0.05709877 -0.07253086       0.042
  -0.04938272 -0.13580247 -0.10493827       0.042
   0.00154321 -0.21450617 -0.13734568       0.042
  -0.15123457  0.02160494 -0.04012346       0.042
  -0.17901235 -0.11728395 -0.06790123       0.042
  -0.12808642 -0.19598765 -0.10030864       0.042
  -0.07716049 -0.27469136 -0.13271605       0.042
  -0.22993827 -0.03858025 -0.03549383       0.042
   0.05709877  0.06327160 -0.08179012       0.042
   0.10802469 -0.01543210 -0.11419753       0.042
   0.15895062 -0.09413580 -0.14660494       0.042
   0.00617284  0.14197531 -0.04938272       0.042
 
 k-points in reciprocal lattice and weights: read from INCAR                         
   0.00000000  0.00000000  0.00000000       0.021
   0.25000000  0.00000000  0.00000000       0.042
   0.50000000  0.00000000  0.00000000       0.021
   0.00000000  0.25000000  0.00000000       0.042
   0.25000000  0.25000000  0.00000000       0.042
   0.50000000  0.25000000  0.00000000       0.042
  -0.25000000  0.25000000  0.00000000       0.042
   0.00000000  0.50000000  0.00000000       0.021
   0.25000000  0.50000000  0.00000000       0.042
   0.50000000  0.50000000  0.00000000       0.021
   0.00000000  0.00000000  0.33333333       0.042
   0.25000000  0.00000000  0.33333333       0.042
   0.50000000  0.00000000  0.33333333       0.042
  -0.25000000  0.00000000  0.33333333       0.042
   0.00000000  0.25000000  0.33333333       0.042
   0.25000000  0.25000000  0.33333333       0.042
   0.50000000  0.25000000  0.33333333       0.042
  -0.25000000  0.25000000  0.33333333       0.042
   0.00000000  0.50000000  0.33333333       0.042
   0.25000000  0.50000000  0.33333333       0.042
   0.50000000  0.50000000  0.33333333       0.042
  -0.25000000  0.50000000  0.33333333       0.042
   0.00000000 -0.25000000  0.33333333       0.042
   0.25000000 -0.25000000  0.33333333       0.042
   0.50000000 -0.25000000  0.33333333       0.042
  -0.25000000 -0.25000000  0.33333333       0.042
 
 position of ions in fractional coordinates (direct lattice) 
   0.12881431  0.98062363  0.23538950
   0.38285263  0.94957659  0.19672271
   0.15756221  0.82963338  0.08207557
   0.64235300  0.91521417  0.15743539
   0.41713494  0.79970600  0.04570596
   0.90767208  0.87641894  0.12204117
   0.69177390  0.76902942  0.00969434
   0.25135843  0.96686025  0.46276150
   0.50869305  0.92678196  0.42325569
   0.29813891  0.82147818  0.32251309
   0.07723362  0.70479386  0.21062263
   0.76878177  0.88552699  0.38843774
   0.55189095  0.77865446  0.27933850
   0.33353880  0.67046990  0.17099170
   0.11110068  0.55706446  0.05818574
   0.81333602  0.74122246  0.24173582
   0.59293210  0.63431204  0.12636414
   0.36198057  0.51457801  0.01897764
   0.85868125  0.59206800  0.09184802
   0.12080067  0.97245378  0.72994706
   0.38392021  0.94665906  0.69532224
   0.64221480  0.91278544  0.65788998
   0.41540192  0.80350357  0.54411698
   0.19822587  0.68970769  0.43244236
   0.67483829  0.75972120  0.51066711
   0.46154942  0.65208211  0.39521651
   0.24592460  0.53190536  0.28539896
   0.93483706  0.72134424  0.47431382
   0.50810778  0.49763391  0.24673595
   0.05617313  0.28237123  0.03111132
   0.98179767  0.57068461  0.32629327
   0.76400217  0.46154215  0.21158032
   0.53475063  0.35172631  0.09754805
   0.03501406  0.84570084  0.85359886
   0.52137845  0.92624684  0.92775514
   0.29656363  0.80934955  0.81831588
   0.07043475  0.69801888  0.70080485
   0.33080989  0.67254334  0.66765005
   0.11339156  0.55109875  0.55030681
   0.81131850  0.74677023  0.73982293
   0.58861767  0.63169918  0.63124905
   0.37940233  0.52165518  0.51507158
   0.15564056  0.40241632  0.40428849
   0.85096977  0.58840706  0.59220630
   0.63841482  0.48080110  0.47836038
   0.41744442  0.36807824  0.36724567
   0.18597848  0.25174777  0.25497185
   0.44753328  0.22058665  0.22020820
   0.22073055  0.10645734  0.10518981
   0.99057898  0.00164245  0.99930749
   0.92733544  0.29251344  0.29760417
   0.70515005  0.18702109  0.17987065
   0.46453592  0.64944078  0.90258197
   0.23951327  0.53171733  0.79163334
   0.02666567  0.42016980  0.67529138
   0.72760473  0.61976446  0.86190400
   0.50405987  0.50674067  0.75309029
   0.28806602  0.39248024  0.63906391
   0.05561249  0.27214434  0.52561733
   0.76503528  0.46397356  0.71385752
   0.31832488  0.24360065  0.49173128
   0.80063688  0.30919072  0.56534473
   0.57961634  0.20680791  0.45381183
   0.35317539  0.09531706  0.34700507
   0.61355320  0.05939785  0.30718210
   0.87179402  0.01966171  0.27184546
   0.63222729  0.48405239  0.98137075
   0.40658994  0.36414526  0.87133397
   0.18761052  0.24940598  0.75981688
   0.89115829  0.44317799  0.94172861
   0.67015283  0.33646570  0.83291248
   0.45195126  0.22455556  0.72169304
   0.22019655  0.10968130  0.61100026
   0.99253983  0.99868958  0.49919619
   0.92951896  0.29180579  0.79342556
   0.48394977  0.08039208  0.57259798
   0.73913197  0.03490303  0.53524382
   0.09162785  0.12711770  0.88276427
   0.58092909  0.20393102  0.95441618
   0.35183045  0.08596441  0.84541487
   0.61623078  0.05594910  0.80653330
   0.03315482  0.85317755  0.35420339
   0.15815596  0.83196520  0.58193750
   0.90071341  0.86944500  0.62073153
   0.02158570  0.42473679  0.17786202
   0.72252812  0.60777628  0.36056373
   0.27857011  0.38750515  0.13896774
   0.79961225  0.31676430  0.06283304
   0.25448163  0.95895536  0.96247187
   0.77944052  0.89229057  0.88775581
   0.55511567  0.78293226  0.78037386
   0.89133049  0.44086500  0.44318251
   0.67483183  0.33223675  0.33153547
   0.47717696  0.07437914  0.07045197
   0.96049215  0.14950048  0.14825654
   0.74042644  0.04147676  0.03648513
   0.20018523  0.68190651  0.93611067
   0.94356571  0.72161332  0.97072229
   0.98422223  0.57295765  0.82481607
   0.54768489  0.35470677  0.60268734
   0.09065035  0.12798400  0.38020085
   0.83344494  0.16649041  0.41666609
   0.14661653  0.40425375  0.90796292
   0.70737200  0.18549005  0.68487546
   0.96068584  0.14214790  0.64854433
   0.31377607  0.23856493  0.99022116
   0.83535458  0.16888642  0.91539425
   0.86990560  0.01946014  0.76826915
 
 position of ions in cartesian coordinates  (Angst):
  -7.16220973 -5.33809904 -1.84346070
  -5.43970907 -7.12621708 -1.80011567
  -5.38037144 -5.28205862  0.02764652
  -3.66199486 -8.93782837 -1.76358681
  -3.64441059 -7.10753942  0.03025047
  -1.83530110-10.75335473 -1.80105370
  -1.82358009 -9.03544640 -0.00053483
  -7.21951357 -5.32762845 -5.33852999
  -5.41176357 -7.09388451 -5.30522240
  -5.42778334 -5.38388562 -3.67646821
  -5.37808675 -3.57870156 -1.89013970
  -3.59759067 -8.85676323 -5.34597763
  -3.60649930 -7.12291970 -3.58920077
  -3.61655329 -5.36890191 -1.84291697
  -3.59524747 -3.57361402 -0.03489579
  -1.80243178 -8.92595242 -3.58572522
  -1.80748450 -7.18921102 -1.73304058
  -1.80595705 -5.27974055  0.00138765
   0.04303529 -8.98617890 -1.78999793
  -8.91481162 -3.46894746 -8.91591303
  -7.19561719 -5.33571170 -8.93721229
  -5.43449570 -7.13469108 -8.92418166
  -5.46267595 -5.33369344 -7.08714118
  -5.41440524 -3.56989104 -5.30540203
  -3.63882115 -7.07346379 -7.15081141
  -3.60022732 -5.38396967 -5.31101891
  -3.50465398 -3.59040208 -3.57001457
  -1.84021949 -8.85662157 -7.16430608
  -1.71543548 -5.41945145 -3.54704609
  -1.82894881 -1.80463063 -0.04056274
   0.01799656 -8.91365109 -5.40085839
   0.04053559 -7.18123567 -3.56624584
   0.00402287 -5.36086503 -1.72209306
  -8.91061403 -1.73380542-10.75736105
  -7.14349761 -5.37813000-12.54319623
  -7.12200613 -3.53508763-10.78531228
  -7.11850599 -1.74135737 -8.89970276
  -5.42156574 -3.58495543 -8.93654717
  -5.29964061 -1.79866987 -7.08698579
  -3.63357863 -7.16061563-10.69484793
  -3.61690217 -5.33938786 -8.94985317
  -3.53667048 -3.66872165 -7.11124664
  -3.48798550 -1.82545614 -5.34021372
  -1.76092258 -7.12262922 -8.93788087
  -1.72436677 -5.43282350 -7.12228791
  -1.70611697 -3.64564393 -5.33985514
  -1.71421128 -1.76821919 -3.52853490
   0.03545837 -3.59551456 -3.55464440
   0.04644405 -1.77304736 -1.70847766
   1.72771204 -3.51892309-16.05782109
   1.81743023 -7.13511679 -5.39048399
   1.80112875 -5.40168588 -3.49830581
  -5.37915825 -3.57732746-12.57640480
  -5.34747818 -1.73376486-10.79804204
  -5.27538605 -0.02965343 -8.95327808
  -3.61084237 -5.44455392-12.51799171
  -3.61247251 -3.62912717-10.76439915
  -3.54613312 -1.87969384 -8.95197353
  -3.52669199  0.02207858 -7.12927709
  -1.76694992 -5.40601978-10.74631043
  -1.79266676 -1.82439203 -7.16532688
   0.06159420 -5.36148147 -8.96288966
   0.00713881 -3.63088693 -7.15590424
  -0.02815713 -1.79579864 -5.42309429
   1.76730837 -3.60725036 -5.38325675
   3.56256667 -5.36691563 -5.41057655
  -3.57905619 -3.60775560-14.29846439
  -3.53831897 -1.74482807-12.53594563
  -3.49353665  0.03749055-10.75492203
  -1.75656609 -5.38164398-14.26748391
  -1.78969728 -3.61822798-12.50711415
  -1.76203622 -1.85557806-10.72668032
  -1.78774322  0.02175466 -8.93484967
  -3.60276205-10.66750627 -7.12751284
   0.06163767 -5.37437275-12.48589780
  -0.02666052 -1.84430562 -8.90951046
   1.80054188 -3.55846448 -8.91279585
  -3.57341946  1.81907449-12.56009098
  -1.75491241 -1.83518521-14.32203544
  -1.75031288  0.04578630-12.56466819
   0.02114496 -1.82272055-12.53492971
  -7.18870389 -3.54594449 -3.59931778
  -7.18086643 -3.51180191 -7.11727226
  -3.60557131 -8.88338453 -8.93235317
  -3.55697149 -1.79613205 -1.82279434
  -1.76005869 -7.13626105 -5.36118021
  -1.77363927 -3.57296301 -1.79251725
   1.79842785 -7.19124804 -1.76160315
  -8.93271005 -3.52110483-12.50410094
  -5.37385485 -7.18418086-12.49318865
  -5.41099441 -5.37771480-10.75212398
   0.04319751 -7.15277413 -7.14271699
   0.05805361 -5.42142783 -5.35334593
   1.77518481 -3.55880756 -1.72746427
   3.55169359 -7.13919806 -3.56971610
   3.54354360 -5.38603381 -1.77110985
  -7.14873387 -1.74145241-12.52530575
  -3.56999633 -7.14581410-14.27806860
  -1.76747292 -7.16095691-12.53000519
  -1.75380042 -3.66345476 -8.96337734
  -1.78819114  0.02475378 -5.37013820
   1.78936074 -5.36235487 -7.15050630
  -5.35015065  0.02984856-12.52334326
   0.01859873 -3.60397039-10.72658311
   1.81677435 -5.31262589-10.73732046
  -3.56315573  0.01723730-14.29460255
  -0.00048337 -3.60590421-14.28144964
   1.77916658 -3.57761786-12.50642010
 


--------------------------------------------------------------------------------------------------------


 k-point  1 :   0.0000 0.0000 0.0000  plane waves:   33189
 k-point  2 :   0.2500 0.0000 0.0000  plane waves:   33194
 k-point  3 :   0.5000 0.0000 0.0000  plane waves:   33174
 k-point  4 :   0.0000 0.2500 0.0000  plane waves:   33194
 k-point  5 :   0.2500 0.2500 0.0000  plane waves:   33217
 k-point  6 :   0.5000 0.2500 0.0000  plane waves:   33227
 k-point  7 :  -0.2500 0.2500 0.0000  plane waves:   33230
 k-point  8 :   0.0000 0.5000 0.0000  plane waves:   33174
 k-point  9 :   0.2500 0.5000 0.0000  plane waves:   33227
 k-point 10 :   0.5000 0.5000 0.0000  plane waves:   33248
 k-point 11 :   0.0000 0.0000 0.3333  plane waves:   33180
 k-point 12 :   0.2500 0.0000 0.3333  plane waves:   33221
 k-point 13 :   0.5000 0.0000 0.3333  plane waves:   33194
 k-point 14 :  -0.2500 0.0000 0.3333  plane waves:   33197
 k-point 15 :   0.0000 0.2500 0.3333  plane waves:   33221
 k-point 16 :   0.2500 0.2500 0.3333  plane waves:   33205
 k-point 17 :   0.5000 0.2500 0.3333  plane waves:   33222
 k-point 18 :  -0.2500 0.2500 0.3333  plane waves:   33234
 k-point 19 :   0.0000 0.5000 0.3333  plane waves:   33194
 k-point 20 :   0.2500 0.5000 0.3333  plane waves:   33222
 k-point 21 :   0.5000 0.5000 0.3333  plane waves:   33234
 k-point 22 :  -0.2500 0.5000 0.3333  plane waves:   33245
 k-point 23 :   0.0000-0.2500 0.3333  plane waves:   33197
 k-point 24 :   0.2500-0.2500 0.3333  plane waves:   33234
 k-point 25 :   0.5000-0.2500 0.3333  plane waves:   33245
 k-point 26 :  -0.2500-0.2500 0.3333  plane waves:   33208

 maximum and minimum number of plane-waves per node :      1071      999

 maximum number of plane-waves:     33248
 maximum index in each direction: 
   IXMAX=   17   IYMAX=   17   IZMAX=   28
   IXMIN=  -17   IYMIN=  -17   IZMIN=  -28


 real space projection operators:
  total allocation   :     101858.48 KBytes
  max/ min on nodes  :       4365.28       2889.28


 parallel 3D FFT for wavefunctions:
    minimum data exchange during FFTs selected (reduces bandwidth)
 parallel 3D FFT for charge:
    minimum data exchange during FFTs selected (reduces bandwidth)


 total amount of memory used by VASP MPI-rank0   271182. kBytes
=======================================================================

   base      :      30000. kBytes
   nonlr-proj:      18693. kBytes
   fftplans  :       2874. kBytes
   grid      :       7434. kBytes
   one-center:        124. kBytes
   wavefun   :     212057. kBytes
 
     INWAV:  cpu time    0.0010: real time    0.0001
 initial charge density was supplied:
 number of electron     917.9999944 magnetization     212.8074041
 keeping initial charge density in first step


--------------------------------------------------------------------------------------------------------


 Maximum index for non-local projection operator          816
 Maximum index for augmentation-charges          788 (set IRDMAX)


--------------------------------------------------------------------------------------------------------


 First call to EWALD:  gamma=   0.165
 Maximum number of real-space cells 3x 3x 2
 Maximum number of reciprocal cells 2x 2x 4

    FEWALD:  cpu time    0.0050: real time    0.0043


--------------------------------------- Iteration      1(   1)  ---------------------------------------


    POTLOK:  cpu time    0.1040: real time    0.1078
    SETDIJ:  cpu time    0.0250: real time    0.0251
     EDDAV:  cpu time  169.3123: real time  169.8665
 BZINTS: Fermi energy: 20.852179;918.000000 electrons
         Band energy:***********;  BLOECHL correction: -0.010315
       DOS:  cpu time    0.4929: real time    0.4951
    --------------------------------------------
      LOOP:  cpu time  169.9342: real time  170.4946

 eigenvalue-minimisations  : 71448
 total energy-change (2. order) : 0.8269518E+04  (-0.3680433E+05)
 number of electron     917.9999944 magnetization     212.8074041
 augmentation part      917.9999944 magnetization     212.8074041

 Free energy of the ion-electron system (eV)
  ---------------------------------------------------
  alpha Z        PSCENC =      6231.93362709
  Ewald energy   TEWEN  =    -71974.83593147
  -Hartree energ DENC   =    -14835.56577334
  -exchange      EXHF   =         0.00000000
  -V(xc)+E(xc)   XCENC  =      1195.38143801
  PAW double counting   =     89107.04510728   -91709.19232800
  entropy T*S    EENTRO =         0.00000000
  eigenvalues    EBANDS =     13018.31029246
  atomic energy  EATOM  =     77236.44196084
  Solvation  Ediel_sol  =         0.00000000
  ---------------------------------------------------
  free energy    TOTEN  =      8269.51839288 eV

  energy without entropy =     8269.51839288  energy(sigma->0) =     8269.51839288


--------------------------------------------------------------------------------------------------------




--------------------------------------- Iteration      1(   2)  ---------------------------------------


     EDDAV:  cpu time  170.4931: real time  171.3864
 BZINTS: Fermi energy:  8.728736;918.000000 electrons
         Band energy:5087.142730;  BLOECHL correction: -0.005620
       DOS:  cpu time    0.4729: real time    0.4740
    --------------------------------------------
      LOOP:  cpu time  170.9660: real time  171.8604

 eigenvalue-minimisations  : 71448
 total energy-change (2. order) :-0.7931168E+04  (-0.7435493E+04)
 number of electron     917.9999944 magnetization     212.8074041
 augmentation part      917.9999944 magnetization     212.8074041

 Free energy of the ion-electron system (eV)
  ---------------------------------------------------
  alpha Z        PSCENC =      6231.93362709
  Ewald energy   TEWEN  =    -71974.83593147
  -Hartree energ DENC   =    -14835.56577334
  -exchange      EXHF   =         0.00000000
  -V(xc)+E(xc)   XCENC  =      1195.38143801
  PAW double counting   =     89107.04510728   -91709.19232800
  entropy T*S    EENTRO =         0.00000000
  eigenvalues    EBANDS =      5087.14272975
  atomic energy  EATOM  =     77236.44196084
  Solvation  Ediel_sol  =         0.00000000
  ---------------------------------------------------
  free energy    TOTEN  =       338.35083017 eV

  energy without entropy =      338.35083017  energy(sigma->0) =      338.35083017


--------------------------------------------------------------------------------------------------------




--------------------------------------- Iteration      1(   3)  ---------------------------------------


     EDDAV:  cpu time  168.2424: real time  168.9554
 BZINTS: Fermi energy:  6.740638;918.000000 electrons
         Band energy:4011.928227;  BLOECHL correction: -0.021868
       DOS:  cpu time    0.4519: real time    0.4533
    --------------------------------------------
      LOOP:  cpu time  168.6944: real time  169.4087

 eigenvalue-minimisations  : 71448
 total energy-change (2. order) :-0.1075215E+04  (-0.8214764E+03)
 number of electron     917.9999944 magnetization     212.8074041
 augmentation part      917.9999944 magnetization     212.8074041

 Free energy of the ion-electron system (eV)
  ---------------------------------------------------
  alpha Z        PSCENC =      6231.93362709
  Ewald energy   TEWEN  =    -71974.83593147
  -Hartree energ DENC   =    -14835.56577334
  -exchange      EXHF   =         0.00000000
  -V(xc)+E(xc)   XCENC  =      1195.38143801
  PAW double counting   =     89107.04510728   -91709.19232800
  entropy T*S    EENTRO =         0.00000000
  eigenvalues    EBANDS =      4011.92822667
  atomic energy  EATOM  =     77236.44196084
  Solvation  Ediel_sol  =         0.00000000
  ---------------------------------------------------
  free energy    TOTEN  =      -736.86367291 eV

  energy without entropy =     -736.86367291  energy(sigma->0) =     -736.86367291


--------------------------------------------------------------------------------------------------------




--------------------------------------- Iteration      1(   4)  ---------------------------------------


     EDDAV:  cpu time  176.4552: real time  177.2089
 BZINTS: Fermi energy:  6.655294;918.000000 electrons
         Band energy:3941.493553;  BLOECHL correction: -0.022617
       DOS:  cpu time    0.4489: real time    0.4486
    --------------------------------------------
      LOOP:  cpu time  176.9041: real time  177.6575

 eigenvalue-minimisations  : 75594
 total energy-change (2. order) :-0.7043467E+02  (-0.6694127E+02)
 number of electron     917.9999944 magnetization     212.8074041
 augmentation part      917.9999944 magnetization     212.8074041

 Free energy of the ion-electron system (eV)
  ---------------------------------------------------
  alpha Z        PSCENC =      6231.93362709
  Ewald energy   TEWEN  =    -71974.83593147
  -Hartree energ DENC   =    -14835.56577334
  -exchange      EXHF   =         0.00000000
  -V(xc)+E(xc)   XCENC  =      1195.38143801
  PAW double counting   =     89107.04510728   -91709.19232800
  entropy T*S    EENTRO =         0.00000000
  eigenvalues    EBANDS =      3941.49355327
  atomic energy  EATOM  =     77236.44196084
  Solvation  Ediel_sol  =         0.00000000
  ---------------------------------------------------
  free energy    TOTEN  =      -807.29834631 eV

  energy without entropy =     -807.29834631  energy(sigma->0) =     -807.29834631


--------------------------------------------------------------------------------------------------------




--------------------------------------- Iteration      1(   5)  ---------------------------------------


     EDDAV:  cpu time  179.3617: real time  180.1827
 BZINTS: Fermi energy:  6.654200;918.000000 electrons
         Band energy:3940.564350;  BLOECHL correction: -0.022589
       DOS:  cpu time    0.4559: real time    0.4574
    --------------------------------------------
      LOOP:  cpu time  179.8177: real time  180.6400

 eigenvalue-minimisations  : 76953
 total energy-change (2. order) :-0.9292032E+00  (-0.9271806E+00)
 number of electron     917.9999944 magnetization     212.8074041
 augmentation part      917.9999944 magnetization     212.8074041

 Free energy of the ion-electron system (eV)
  ---------------------------------------------------
  alpha Z        PSCENC =      6231.93362709
  Ewald energy   TEWEN  =    -71974.83593147
  -Hartree energ DENC   =    -14835.56577334
  -exchange      EXHF   =         0.00000000
  -V(xc)+E(xc)   XCENC  =      1195.38143801
  PAW double counting   =     89107.04510728   -91709.19232800
  entropy T*S    EENTRO =         0.00000000
  eigenvalues    EBANDS =      3940.56435002
  atomic energy  EATOM  =     77236.44196084
  Solvation  Ediel_sol  =         0.00000000
  ---------------------------------------------------
  free energy    TOTEN  =      -808.22754956 eV

  energy without entropy =     -808.22754956  energy(sigma->0) =     -808.22754956


--------------------------------------------------------------------------------------------------------




--------------------------------------- Iteration      1(   6)  ---------------------------------------


    EDDIAG:  cpu time   27.2209: real time   27.2942
  RMM-DIIS:  cpu time   84.8961: real time   85.3049
    ORTHCH:  cpu time    9.5555: real time    9.5732
 BZINTS: Fermi energy:  6.654171;918.000000 electrons
         Band energy:3940.535851;  BLOECHL correction: -0.022588
       DOS:  cpu time    0.4699: real time    0.4695
    --------------------------------------------
      LOOP:  cpu time  122.1424: real time  122.6419

 eigenvalue-minimisations  : 77538
 total energy-change (2. order) :-0.2849893E-01  (-0.2849880E-01)
 number of electron     917.9999944 magnetization     212.8074041
 augmentation part      917.9999944 magnetization     212.8074041

 Free energy of the ion-electron system (eV)
  ---------------------------------------------------
  alpha Z        PSCENC =      6231.93362709
  Ewald energy   TEWEN  =    -71974.83593147
  -Hartree energ DENC   =    -14835.56577334
  -exchange      EXHF   =         0.00000000
  -V(xc)+E(xc)   XCENC  =      1195.38143801
  PAW double counting   =     89107.04510728   -91709.19232800
  entropy T*S    EENTRO =         0.00000000
  eigenvalues    EBANDS =      3940.53585109
  atomic energy  EATOM  =     77236.44196084
  Solvation  Ediel_sol  =         0.00000000
  ---------------------------------------------------
  free energy    TOTEN  =      -808.25604849 eV

  energy without entropy =     -808.25604849  energy(sigma->0) =     -808.25604849


--------------------------------------------------------------------------------------------------------




--------------------------------------- Iteration      1(   7)  ---------------------------------------


    EDDIAG:  cpu time   27.3108: real time   27.3664
  RMM-DIIS:  cpu time  117.5861: real time  118.0089
    ORTHCH:  cpu time    9.7225: real time    9.7514
 BZINTS: Fermi energy:  6.654163;918.000000 electrons
         Band energy:3940.528279;  BLOECHL correction: -0.022588
       DOS:  cpu time    0.4569: real time    0.4578
    --------------------------------------------
      LOOP:  cpu time  155.0764: real time  155.5845

 eigenvalue-minimisations  :109674
 total energy-change (2. order) :-0.7572272E-02  (-0.7544920E-02)
 number of electron     917.9999944 magnetization     212.8074041
 augmentation part      917.9999944 magnetization     212.8074041

 Free energy of the ion-electron system (eV)
  ---------------------------------------------------
  alpha Z        PSCENC =      6231.93362709
  Ewald energy   TEWEN  =    -71974.83593147
  -Hartree energ DENC   =    -14835.56577334
  -exchange      EXHF   =         0.00000000
  -V(xc)+E(xc)   XCENC  =      1195.38143801
  PAW double counting   =     89107.04510728   -91709.19232800
  entropy T*S    EENTRO =         0.00000000
  eigenvalues    EBANDS =      3940.52827882
  atomic energy  EATOM  =     77236.44196084
  Solvation  Ediel_sol  =         0.00000000
  ---------------------------------------------------
  free energy    TOTEN  =      -808.26362076 eV

  energy without entropy =     -808.26362076  energy(sigma->0) =     -808.26362076


--------------------------------------------------------------------------------------------------------




--------------------------------------- Iteration      1(   8)  ---------------------------------------


    EDDIAG:  cpu time   27.4918: real time   27.5509
  RMM-DIIS:  cpu time  106.7078: real time  107.3301
    ORTHCH:  cpu time    9.6275: real time    9.6508
 BZINTS: Fermi energy:  6.654163;918.000000 electrons
         Band energy:3940.528226;  BLOECHL correction: -0.022588
       DOS:  cpu time    0.4659: real time    0.4674
    --------------------------------------------
      LOOP:  cpu time  144.2931: real time  144.9991

 eigenvalue-minimisations  : 97544
 total energy-change (2. order) :-0.5280206E-04  (-0.8773970E-04)
 number of electron     917.9999944 magnetization     212.8074041
 augmentation part      917.9999944 magnetization     212.8074041

 Free energy of the ion-electron system (eV)
  ---------------------------------------------------
  alpha Z        PSCENC =      6231.93362709
  Ewald energy   TEWEN  =    -71974.83593147
  -Hartree energ DENC   =    -14835.56577334
  -exchange      EXHF   =         0.00000000
  -V(xc)+E(xc)   XCENC  =      1195.38143801
  PAW double counting   =     89107.04510728   -91709.19232800
  entropy T*S    EENTRO =         0.00000000
  eigenvalues    EBANDS =      3940.52822602
  atomic energy  EATOM  =     77236.44196084
  Solvation  Ediel_sol  =         0.00000000
  ---------------------------------------------------
  free energy    TOTEN  =      -808.26367356 eV

  energy without entropy =     -808.26367356  energy(sigma->0) =     -808.26367356


--------------------------------------------------------------------------------------------------------




--------------------------------------- Iteration      1(   9)  ---------------------------------------


    EDDIAG:  cpu time   27.9967: real time   28.0792
  RMM-DIIS:  cpu time  102.7144: real time  103.2371
    ORTHCH:  cpu time    9.5016: real time    9.5449
 BZINTS: Fermi energy:  6.654163;918.000000 electrons
         Band energy:3940.528216;  BLOECHL correction: -0.022588
       DOS:  cpu time    0.4469: real time    0.4504
    --------------------------------------------
      LOOP:  cpu time  140.6596: real time  141.3116

 eigenvalue-minimisations  : 94653
 total energy-change (2. order) :-0.1039701E-04  (-0.1018396E-04)
 number of electron     917.9999944 magnetization     212.8074041
 augmentation part      917.9999944 magnetization     212.8074041

 Free energy of the ion-electron system (eV)
  ---------------------------------------------------
  alpha Z        PSCENC =      6231.93362709
  Ewald energy   TEWEN  =    -71974.83593147
  -Hartree energ DENC   =    -14835.56577334
  -exchange      EXHF   =         0.00000000
  -V(xc)+E(xc)   XCENC  =      1195.38143801
  PAW double counting   =     89107.04510728   -91709.19232800
  entropy T*S    EENTRO =         0.00000000
  eigenvalues    EBANDS =      3940.52821562
  atomic energy  EATOM  =     77236.44196084
  Solvation  Ediel_sol  =         0.00000000
  ---------------------------------------------------
  free energy    TOTEN  =      -808.26368396 eV

  energy without entropy =     -808.26368396  energy(sigma->0) =     -808.26368396


--------------------------------------------------------------------------------------------------------




--------------------------------------- Iteration      1(  10)  ---------------------------------------


    EDDIAG:  cpu time   27.5298: real time   27.6609
  RMM-DIIS:  cpu time   73.6788: real time   73.9287
    ORTHCH:  cpu time    9.4736: real time    9.5122
 BZINTS: Fermi energy:  6.654163;918.000000 electrons
         Band energy:3940.528215;  BLOECHL correction: -0.022588
       DOS:  cpu time    0.4369: real time    0.4376
    --------------------------------------------
      LOOP:  cpu time  111.1191: real time  111.5394

 eigenvalue-minimisations  : 66147
 total energy-change (2. order) :-0.5366746E-06  (-0.5496712E-06)
 number of electron     917.9999944 magnetization     212.8074041
 augmentation part      917.9999944 magnetization     212.8074041

 Free energy of the ion-electron system (eV)
  ---------------------------------------------------
  alpha Z        PSCENC =      6231.93362709
  Ewald energy   TEWEN  =    -71974.83593147
  -Hartree energ DENC   =    -14835.56577334
  -exchange      EXHF   =         0.00000000
  -V(xc)+E(xc)   XCENC  =      1195.38143801
  PAW double counting   =     89107.04510728   -91709.19232800
  entropy T*S    EENTRO =         0.00000000
  eigenvalues    EBANDS =      3940.52821509
  atomic energy  EATOM  =     77236.44196084
  Solvation  Ediel_sol  =         0.00000000
  ---------------------------------------------------
  free energy    TOTEN  =      -808.26368449 eV

  energy without entropy =     -808.26368449  energy(sigma->0) =     -808.26368449


--------------------------------------------------------------------------------------------------------




 average (electrostatic) potential at core
  the test charge radii are     1.0103  0.9791
  (the norm of the test charge is              1.0000)
       1 -42.5670       2 -42.5301       3 -42.5641       4 -42.5733       5 -42.6271
       6 -42.5321       7 -42.5603       8 -42.6131       9 -42.6290      10 -43.2643
      11 -42.5871      12 -42.5080      13 -42.5682      14 -42.5495      15 -42.5007
      16 -42.5849      17 -42.5663      18 -42.6483      19 -42.6251      20 -42.6223
      21 -42.5263      22 -42.5482      23 -42.5553      24 -42.6089      25 -42.5691
      26 -42.5595      27 -42.5636      28 -42.6300      29 -42.5376      30 -42.6599
      31 -42.5717      32 -42.5719      33 -42.5342      34 -42.6815      35 -42.5292
      36 -42.5761      37 -42.5253      38 -42.5443      39 -42.5669      40 -42.6428
      41 -42.5332      42 -42.5188      43 -42.5315      44 -42.5039      45 -42.5903
      46 -42.5124      47 -42.5882      48 -42.5629      49 -42.6594      50 -42.5939
      51 -42.6205      52 -42.5834      53 -42.4942      54 -42.5895      55 -42.5278
      56 -42.6284      57 -42.5433      58 -42.5536      59 -42.5893      60 -42.5755
      61 -42.5150      62 -42.5936      63 -42.5410      64 -42.5692      65 -42.5723
      66 -42.5676      67 -42.5148      68 -42.5355      69 -42.5360      70 -42.5849
      71 -42.5359      72 -42.5499      73 -42.5373      74 -42.6165      75 -42.6545
      76 -42.5924      77 -42.5590      78 -42.6503      79 -42.6090      80 -42.5561
      81 -42.6540      82 -84.7960      83 -84.7066      84 -84.7507      85 -84.7527
      86 -84.7313      87 -84.7270      88 -84.7109      89 -84.8114      90 -84.7565
      91 -84.7495      92 -84.7483      93 -84.7508      94 -84.7239      95 -84.7388
      96 -84.7024      97 -84.8033      98 -84.7778      99 -84.7745     100 -84.7527
     101 -84.7437     102 -84.7598     103 -84.8000     104 -84.7428     105 -84.7689
     106 -84.7743     107 -84.7475     108 -84.8069
 
 
 
 E-fermi :   6.6542     XC(G=0): -13.0473     alpha+bet :-14.0976


 spin component 1

 k-point     1 :       0.0000    0.0000    0.0000
  band No.  band energies     occupation 
      1      -2.0027      1.00000
      2      -1.3020      1.00000
      3      -1.2402      1.00000
      4      -0.1759      1.00000
      5      -0.1329      1.00000
      6      -0.1223      1.00000
      7      -0.1012      1.00000
      8       0.1309      1.00000
      9       0.1504      1.00000
     10       0.1675      1.00000
     11       0.2233      1.00000
     12       0.5901      1.00000
     13       0.6079      1.00000
     14       0.6679      1.00000
     15       0.6719      1.00000
     16       0.7056      1.00000
     17       0.7171      1.00000
     18       1.1188      1.00000
     19       1.1292      1.00000
     20       1.1807      1.00000
     21       1.2055      1.00000
     22       1.3206      1.00000
     23       1.3444      1.00000
     24       1.3620      1.00000
     25       1.3749      1.00000
     26       1.3896      1.00000
     27       1.3974      1.00000
     28       1.4451      1.00000
     29       1.4749      1.00000
     30       1.6309      1.00000
     31       1.6477      1.00000
     32       1.6888      1.00000
     33       1.7466      1.00000
     34       1.7578      1.00000
     35       1.8251      1.00000
     36       1.8525      1.00000
     37       1.8667      1.00000
     38       1.8760      1.00000
     39       1.8831      1.00000
     40       1.8928      1.00000
     41       1.9333      1.00000
     42       1.9417      1.00000
     43       1.9832      1.00000
     44       1.9921      1.00000
     45       2.0022      1.00000
     46       2.0215      1.00000
     47       2.0386      1.00000
     48       2.0560      1.00000
     49       2.0676      1.00000
     50       2.0810      1.00000
     51       2.0885      1.00000
     52       2.0964      1.00000
     53       2.0992      1.00000
     54       2.1281      1.00000
     55       2.1325      1.00000
     56       2.1490      1.00000
     57       2.1550      1.00000
     58       2.1656      1.00000
     59       2.1860      1.00000
     60       2.1900      1.00000
     61       2.2059      1.00000
     62       2.2178      1.00000
     63       2.2404      1.00000
     64       2.2486      1.00000
     65       2.2630      1.00000
     66       2.2673      1.00000
     67       2.2840      1.00000
     68       2.2959      1.00000
     69       2.2977      1.00000
     70       2.3076      1.00000
     71       2.3273      1.00000
     72       2.3357      1.00000
     73       2.3476      1.00000
     74       2.3605      1.00000
     75       2.3815      1.00000
     76       2.3822      1.00000
     77       2.4061      1.00000
     78       2.4178      1.00000
     79       2.4271      1.00000
     80       2.4377      1.00000
     81       2.4444      1.00000
     82       2.4526      1.00000
     83       2.4773      1.00000
     84       2.4787      1.00000
     85       2.4902      1.00000
     86       2.5098      1.00000
     87       2.5128      1.00000
     88       2.5341      1.00000
     89       2.5510      1.00000
     90       2.5778      1.00000
     91       2.5828      1.00000
     92       2.5960      1.00000
     93       2.6015      1.00000
     94       2.6077      1.00000
     95       2.6135      1.00000
     96       2.6207      1.00000
     97       2.6235      1.00000
     98       2.6286      1.00000
     99       2.6348      1.00000
    100       2.6502      1.00000
    101       2.6529      1.00000
    102       2.6594      1.00000
    103       2.6620      1.00000
    104       2.6732      1.00000
    105       2.6848      1.00000
    106       2.6913      1.00000
    107       2.6958      1.00000
    108       2.7127      1.00000
    109       2.7248      1.00000
    110       2.7298      1.00000
    111       2.7406      1.00000
    112       2.7483      1.00000
    113       2.7546      1.00000
    114       2.7596      1.00000
    115       2.7642      1.00000
    116       2.7664      1.00000
    117       2.7790      1.00000
    118       2.7813      1.00000
    119       2.7890      1.00000
    120       2.7938      1.00000
    121       2.7987      1.00000
    122       2.8107      1.00000
    123       2.8397      1.00000
    124       2.8544      1.00000
    125       2.8606      1.00000
    126       2.8835      1.00000
    127       2.8908      1.00000
    128       2.9006      1.00000
    129       2.9186      1.00000
    130       2.9267      1.00000
    131       2.9465      1.00000
    132       2.9539      1.00000
    133       2.9583      1.00000
    134       2.9703      1.00000
    135       2.9832      1.00000
    136       3.0061      1.00000
    137       3.0111      1.00000
    138       3.0154      1.00000
    139       3.0403      1.00000
    140       3.0439      1.00000
    141       3.0646      1.00000
    142       3.0855      1.00000
    143       3.0923      1.00000
    144       3.1028      1.00000
    145       3.1068      1.00000
    146       3.1161      1.00000
    147       3.1274      1.00000
    148       3.1308      1.00000
    149       3.1363      1.00000
    150       3.1489      1.00000
    151       3.1543      1.00000
    152       3.1680      1.00000
    153       3.1848      1.00000
    154       3.1912      1.00000
    155       3.1925      1.00000
    156       3.1966      1.00000
    157       3.2090      1.00000
    158       3.2160      1.00000
    159       3.2761      1.00000
    160       3.2831      1.00000
    161       3.2922      1.00000
    162       3.3064      1.00000
    163       3.3135      1.00000
    164       3.3219      1.00000
    165       3.3285      1.00000
    166       3.3312      1.00000
    167       3.3428      1.00000
[...]
     -3.59759     -8.85676     -5.34598        -0.020913      0.010097     -0.003688
     -3.60650     -7.12292     -3.58920        -0.097263      0.079214     -0.011179
     -3.61655     -5.36890     -1.84292         0.034706      0.006709      0.080490
     -3.59525     -3.57361     -0.03490        -0.029022     -0.010036     -0.038426
     -1.80243     -8.92595     -3.58573         0.099919     -0.076414      0.026745
     -1.80748     -7.18921     -1.73304         0.000708      0.029806     -0.027667
     -1.80596     -5.27974      0.00139         0.004307     -0.010611      0.013444
      0.04304     -8.98618     -1.79000        -0.014691      0.005316      0.009996
     -8.91481     -3.46895     -8.91591         0.017172      0.009268     -0.011775
     -7.19562     -5.33571     -8.93721        -0.038148     -0.003517     -0.040290
     -5.43450     -7.13469     -8.92418        -0.019778      0.015136     -0.018746
     -5.46268     -5.33369     -7.08714        -0.015570      0.057857     -0.026975
     -5.41441     -3.56989     -5.30540         0.011614      0.029386     -0.028026
     -3.63882     -7.07346     -7.15081        -0.010471      0.014486      0.031770
     -3.60023     -5.38397     -5.31102         0.064111      0.027974     -0.071978
     -3.50465     -3.59040     -3.57001        -0.058555     -0.017455     -0.019884
     -1.84022     -8.85662     -7.16431         0.052950     -0.053848     -0.027957
     -1.71544     -5.41945     -3.54705        -0.003741      0.031202      0.000460
     -1.82895     -1.80463     -0.04056        -0.002266      0.005323     -0.001111
      0.01800     -8.91365     -5.40086         0.021407     -0.019746      0.007082
      0.04054     -7.18124     -3.56625        -0.009300     -0.037407      0.018754
      0.00402     -5.36087     -1.72209        -0.012140     -0.003974     -0.010129
     -8.91061     -1.73381    -10.75736        -0.005339     -0.002185      0.009209
     -7.14350     -5.37813    -12.54320         0.003528     -0.002554     -0.015670
     -7.12201     -3.53509    -10.78531        -0.006559     -0.007833      0.012039
     -7.11851     -1.74136     -8.89970         0.007254      0.002107      0.021726
     -5.42157     -3.58496     -8.93655        -0.003576      0.002392      0.026642
     -5.29964     -1.79867     -7.08699        -0.006890      0.025856     -0.030797
     -3.63358     -7.16062    -10.69485         0.006150      0.002946      0.007461
     -3.61690     -5.33939     -8.94985         0.013549      0.003070     -0.015174
     -3.53667     -3.66872     -7.11125        -0.000234     -0.049426     -0.023173
     -3.48799     -1.82546     -5.34021        -0.024189      0.003512     -0.010910
     -1.76092     -7.12263     -8.93788        -0.007333      0.001611     -0.005943
     -1.72437     -5.43282     -7.12229         0.022838      0.017112     -0.043124
     -1.70612     -3.64564     -5.33986        -0.024086     -0.045514      0.012935
     -1.71421     -1.76822     -3.52853         0.030210      0.013633     -0.031903
      0.03546     -3.59551     -3.55464        -0.003163      0.019931     -0.012076
      0.04644     -1.77305     -1.70848         0.019175      0.011956     -0.028877
      1.72771     -3.51892    -16.05782         0.000931     -0.019514      0.000904
      1.81743     -7.13512     -5.39048         0.010818     -0.011863     -0.008102
      1.80113     -5.40169     -3.49831         0.006942      0.030290      0.008968
     -5.37916     -3.57733    -12.57640         0.012469     -0.010843      0.007122
     -5.34748     -1.73376    -10.79804         0.004355     -0.005944      0.009286
     -5.27539     -0.02965     -8.95328        -0.004592      0.000645     -0.002910
     -3.61084     -5.44455    -12.51799        -0.006217      0.009326     -0.019287
     -3.61247     -3.62913    -10.76440         0.012915      0.014463      0.019351
     -3.54613     -1.87969     -8.95197        -0.004249     -0.038854     -0.002140
     -3.52669      0.02208     -7.12928         0.003424     -0.007060      0.013471
     -1.76695     -5.40602    -10.74631         0.000636      0.004781      0.014788
     -1.79267     -1.82439     -7.16533         0.023139      0.018247      0.033783
      0.06159     -5.36148     -8.96289        -0.016611     -0.016784     -0.025298
      0.00714     -3.63089     -7.15590         0.032474      0.018578      0.030159
     -0.02816     -1.79580     -5.42309         0.082362      0.117108     -0.047412
      1.76731     -3.60725     -5.38326        -0.047161     -0.020796      0.004641
      3.56257     -5.36692     -5.41058         0.014507     -0.032855      0.032029
     -3.57906     -3.60776    -14.29846         0.007431      0.007165      0.009722
     -3.53832     -1.74483    -12.53595         0.020380     -0.004522      0.010876
     -3.49354      0.03749    -10.75492         0.005548     -0.018207     -0.019977
     -1.75657     -5.38164    -14.26748         0.001452      0.005271      0.000052
     -1.78970     -3.61823    -12.50711        -0.008117      0.004217     -0.003408
     -1.76204     -1.85558    -10.72668        -0.013059     -0.015581      0.006106
     -1.78774      0.02175     -8.93485         0.006796     -0.006169     -0.030345
     -3.60276    -10.66751     -7.12751         0.030087     -0.049671     -0.035534
      0.06164     -5.37437    -12.48590         0.001197     -0.003710      0.008297
     -0.02666     -1.84431     -8.90951         0.069577     -0.033023      0.026677
      1.80054     -3.55846     -8.91280        -0.021867      0.022019      0.008215
     -3.57342      1.81907    -12.56009         0.003133     -0.003448     -0.009849
     -1.75491     -1.83519    -14.32204        -0.001078     -0.000031     -0.003345
     -1.75031      0.04579    -12.56467        -0.000008     -0.006499      0.019749
      0.02114     -1.82272    -12.53493         0.007628      0.012305      0.000439
     -7.18870     -3.54594     -3.59932         0.007759     -0.046244      0.010330
     -7.18087     -3.51180     -7.11727         0.006359     -0.015556     -0.008500
     -3.60557     -8.88338     -8.93235         0.013055     -0.010858     -0.001265
     -3.55697     -1.79613     -1.82279        -0.019071     -0.018122     -0.021171
     -1.76006     -7.13626     -5.36118        -0.011323      0.033923      0.021567
     -1.77364     -3.57296     -1.79252        -0.005059     -0.016266     -0.010292
      1.79843     -7.19125     -1.76160         0.006476      0.007218      0.002572
     -8.93271     -3.52110    -12.50410        -0.004670      0.013155     -0.001362
     -5.37385     -7.18418    -12.49319         0.010508      0.003072      0.017530
     -5.41099     -5.37771    -10.75212         0.002241      0.002190      0.004787
      0.04320     -7.15277     -7.14272         0.003451     -0.007619     -0.013557
      0.05805     -5.42143     -5.35335        -0.001764      0.029280      0.013537
      1.77518     -3.55881     -1.72746         0.016846     -0.003876     -0.011275
      3.55169     -7.13920     -3.56972         0.001480     -0.000770     -0.006016
      3.54354     -5.38603     -1.77111        -0.011663      0.015458      0.004931
     -7.14873     -1.74145    -12.52531        -0.013006     -0.002059      0.007580
     -3.57000     -7.14581    -14.27807        -0.000509      0.006447     -0.003221
     -1.76747     -7.16096    -12.53001         0.004988     -0.004243     -0.006398
     -1.75380     -3.66345     -8.96338         0.007760     -0.007968     -0.022354
     -1.78819      0.02475     -5.37014         0.033934      0.007807      0.014984
      1.78936     -5.36235     -7.15051         0.008841     -0.040428     -0.005820
     -5.35015      0.02985    -12.52334         0.000297      0.008772      0.002745
      0.01860     -3.60397    -10.72658        -0.025037      0.002290      0.006471
      1.81677     -5.31263    -10.73732         0.003312     -0.017434      0.005267
     -3.56316      0.01724    -14.29460        -0.007413      0.005375     -0.013086
     -0.00048     -3.60590    -14.28145         0.004670      0.006303     -0.000563
      1.77917     -3.57762    -12.50642         0.004100      0.011825     -0.023310
 -----------------------------------------------------------------------------------
    total drift:                                0.002188     -0.019702     -0.013981


--------------------------------------------------------------------------------------------------------



  FREE ENERGIE OF THE ION-ELECTRON SYSTEM (eV)
  ---------------------------------------------------
  free  energy   TOTEN  =      -808.26368449 eV

  energy  without entropy=     -808.26368449  energy(sigma->0) =     -808.26368449
 


--------------------------------------------------------------------------------------------------------


    POTLOK:  cpu time    0.1490: real time    0.1581


--------------------------------------------------------------------------------------------------------


     LOOP+:  cpu time 1692.9896: real time 1700.3588
    4ORBIT:  cpu time    0.0000: real time    0.0000
 


 total charge     
 
# of ion       s       p       d       tot
------------------------------------------
    1        0.482   0.515   6.232   7.229
    2        0.481   0.514   6.239   7.234
    3        0.482   0.516   6.213   7.212
    4        0.475   0.509   6.194   7.177
    5        0.477   0.512   6.194   7.183
    6        0.479   0.510   6.216   7.205
    7        0.481   0.516   6.210   7.208
    8        0.494   0.541   6.238   7.273
    9        0.500   0.556   6.344   7.400
   10        0.516   0.582   6.157   7.255
   11        0.480   0.516   6.207   7.203
   12        0.485   0.518   6.236   7.239
   13        0.490   0.531   6.239   7.260
   14        0.482   0.517   6.212   7.211
   15        0.482   0.509   6.233   7.223
   16        0.477   0.509   6.194   7.179
   17        0.480   0.515   6.193   7.188
   18        0.478   0.511   6.191   7.180
   19        0.476   0.508   6.192   7.176
   20        0.477   0.509   6.195   7.180
   21        0.478   0.511   6.209   7.199
   22        0.480   0.513   6.221   7.214
   23        0.484   0.526   6.211   7.221
   24        0.486   0.525   6.222   7.233
   25        0.482   0.517   6.219   7.218
   26        0.492   0.533   6.248   7.273
   27        0.482   0.519   6.220   7.222
   28        0.474   0.507   6.195   7.176
   29        0.480   0.514   6.209   7.203
   30        0.475   0.505   6.196   7.176
   31        0.478   0.511   6.207   7.196
   32        0.478   0.510   6.206   7.194
   33        0.481   0.510   6.218   7.209
   34        0.476   0.510   6.197   7.182
   35        0.483   0.515   6.221   7.219
   36        0.480   0.513   6.207   7.200
   37        0.476   0.506   6.212   7.195
   38        0.478   0.506   6.205   7.189
   39        0.475   0.506   6.197   7.178
   40        0.477   0.509   6.199   7.184
   41        0.479   0.513   6.211   7.203
   42        0.477   0.510   6.208   7.196
   43        0.481   0.515   6.213   7.209
   44        0.484   0.517   6.220   7.221
   45        0.483   0.515   6.208   7.206
   46        0.490   0.528   6.222   7.239
   47        0.477   0.506   6.209   7.192
   48        0.478   0.514   6.210   7.202
   49        0.476   0.508   6.195   7.178
   50        0.480   0.513   6.213   7.207
   51        0.480   0.512   6.205   7.197
   52        0.478   0.509   6.206   7.193
   53        0.481   0.514   6.217   7.212
   54        0.479   0.507   6.201   7.188
   55        0.480   0.513   6.211   7.204
   56        0.481   0.516   6.202   7.198
   57        0.479   0.511   6.205   7.196
   58        0.475   0.506   6.194   7.175
   59        0.478   0.511   6.209   7.199
   60        0.479   0.514   6.206   7.198
   61        0.484   0.519   6.234   7.237
   62        0.482   0.516   6.208   7.205
   63        0.489   0.531   6.229   7.249
   64        0.496   0.541   6.259   7.295
   65        0.485   0.524   6.213   7.223
   66        0.482   0.517   6.213   7.212
   67        0.482   0.520   6.212   7.215
   68        0.479   0.511   6.207   7.197
   69        0.481   0.512   6.211   7.204
   70        0.479   0.510   6.213   7.202
   71        0.486   0.522   6.217   7.226
   72        0.478   0.508   6.204   7.190
   73        0.481   0.513   6.206   7.200
   74        0.480   0.512   6.212   7.203
   75        0.478   0.508   6.199   7.185
   76        0.485   0.523   6.215   7.223
   77        0.486   0.519   6.225   7.230
   78        0.475   0.507   6.199   7.182
   79        0.482   0.514   6.208   7.203
   80        0.480   0.515   6.208   7.204
   81        0.480   0.513   6.199   7.192
   82        0.530   0.549   8.313   9.393
   83        0.520   0.536   8.310   9.366
   84        0.519   0.535   8.311   9.365
   85        0.516   0.527   8.311   9.354
   86        0.519   0.533   8.312   9.364
   87        0.521   0.534   8.314   9.369
   88        0.515   0.525   8.318   9.358
   89        0.523   0.538   8.315   9.376
   90        0.519   0.534   8.322   9.375
   91        0.521   0.538   8.311   9.369
   92        0.519   0.533   8.312   9.364
   93        0.521   0.538   8.311   9.370
   94        0.518   0.530   8.316   9.364
   95        0.518   0.530   8.310   9.357
   96        0.521   0.529   8.325   9.375
   97        0.521   0.533   8.314   9.368
   98        0.526   0.542   8.316   9.385
   99        0.517   0.528   8.315   9.360
  100        0.517   0.534   8.302   9.353
  101        0.527   0.549   8.315   9.392
  102        0.527   0.547   8.318   9.392
  103        0.518   0.535   8.309   9.362
  104        0.521   0.537   8.314   9.372
  105        0.522   0.537   8.311   9.369
  106        0.516   0.528   8.315   9.360
  107        0.519   0.530   8.320   9.369
  108        0.516   0.528   8.314   9.357
--------------------------------------------------
tot         53.036  56.227 727.678 836.941
 


 magnetization (x)
 
# of ion       s       p       d       tot
------------------------------------------
    1       -0.006  -0.031   2.393   2.356
    2       -0.011  -0.036   2.377   2.329
    3       -0.013  -0.038   2.563   2.512
    4       -0.011  -0.041   2.619   2.567
    5       -0.010  -0.040   2.638   2.588
    6       -0.011  -0.037   2.555   2.507
    7       -0.011  -0.040   2.581   2.530
    8       -0.006  -0.027   2.312   2.279
    9       -0.029  -0.062   0.041  -0.049
   10       -0.043  -0.077  -2.130  -2.250
   11       -0.009  -0.038   2.484   2.437
   12       -0.008  -0.033   2.422   2.380
   13       -0.007  -0.032   2.321   2.282
   14       -0.011  -0.040   2.458   2.406
   15       -0.009  -0.029   2.495   2.456
   16       -0.012  -0.041   2.606   2.553
   17       -0.017  -0.054   2.609   2.538
   18       -0.007  -0.036   2.657   2.614
   19       -0.009  -0.039   2.652   2.604
   20       -0.009  -0.037   2.636   2.590
   21       -0.014  -0.044   2.579   2.521
   22       -0.012  -0.036   2.564   2.517
   23       -0.013  -0.044   2.456   2.399
   24       -0.011  -0.038   2.349   2.300
   25       -0.010  -0.037   2.502   2.456
   26       -0.009  -0.033   2.264   2.222
   27       -0.009  -0.036   2.472   2.427
   28       -0.006  -0.031   2.626   2.589
   29       -0.011  -0.037   2.552   2.504
   30       -0.005  -0.026   2.631   2.600
   31       -0.010  -0.036   2.578   2.533
   32       -0.010  -0.037   2.596   2.549
   33       -0.011  -0.034   2.552   2.507
   34       -0.006  -0.032   2.655   2.618
   35       -0.010  -0.033   2.533   2.490
   36       -0.012  -0.039   2.596   2.545
   37       -0.012  -0.038   2.556   2.506
   38       -0.013  -0.042   2.591   2.535
   39       -0.011  -0.044   2.615   2.560
   40       -0.006  -0.032   2.646   2.607
   41       -0.014  -0.043   2.574   2.518
   42       -0.014  -0.044   2.567   2.509
   43       -0.014  -0.042   2.550   2.494
   44       -0.015  -0.047   2.533   2.471
   45       -0.008  -0.037   2.591   2.546
   46       -0.016  -0.050   2.487   2.421
   47       -0.007  -0.034   2.586   2.545
   48       -0.010  -0.036   2.562   2.516
   49       -0.006  -0.032   2.644   2.606
   50       -0.007  -0.032   2.578   2.538
   51       -0.007  -0.029   2.608   2.572
   52       -0.007  -0.033   2.605   2.565
   53       -0.015  -0.045   2.541   2.481
   54       -0.011  -0.038   2.618   2.569
   55       -0.014  -0.046   2.576   2.516
   56       -0.009  -0.036   2.629   2.584
   57       -0.014  -0.045   2.601   2.543
   58       -0.014  -0.047   2.621   2.560
   59       -0.009  -0.035   2.605   2.561
   60       -0.012  -0.041   2.604   2.551
   61       -0.014  -0.038   2.495   2.442
   62       -0.008  -0.032   2.590   2.549
   63       -0.010  -0.037   2.456   2.410
   64       -0.009  -0.035   2.201   2.158
   65       -0.012  -0.037   2.473   2.424
   66       -0.011  -0.035   2.546   2.501
   67       -0.016  -0.050   2.563   2.496
   68       -0.013  -0.042   2.589   2.533
   69       -0.014  -0.043   2.577   2.520
   70       -0.008  -0.031   2.588   2.549
   71       -0.016  -0.046   2.553   2.491
   72       -0.012  -0.043   2.608   2.554
   73       -0.013  -0.044   2.579   2.521
   74       -0.005  -0.026   2.586   2.556
   75       -0.005  -0.025   2.635   2.604
   76       -0.010  -0.039   2.504   2.455
   77       -0.008  -0.032   2.509   2.469
   78       -0.007  -0.033   2.643   2.603
   79       -0.008  -0.033   2.606   2.566
   80       -0.014  -0.046   2.580   2.519
   81       -0.007  -0.033   2.639   2.598
   82       -0.029  -0.060   0.657   0.568
   83       -0.033  -0.068   0.726   0.625
   84       -0.028  -0.061   0.740   0.651
   85       -0.027  -0.059   0.740   0.654
   86       -0.031  -0.060   0.732   0.640
   87       -0.032  -0.064   0.720   0.624
   88       -0.027  -0.056   0.718   0.635
   89       -0.028  -0.060   0.759   0.670
   90       -0.026  -0.054   0.723   0.644
   91       -0.032  -0.068   0.749   0.650
   92       -0.029  -0.061   0.743   0.652
   93       -0.029  -0.060   0.741   0.652
   94       -0.029  -0.060   0.723   0.634
   95       -0.029  -0.064   0.735   0.643
   96       -0.027  -0.050   0.689   0.612
   97       -0.027  -0.055   0.754   0.673
   98       -0.031  -0.062   0.734   0.641
   99       -0.028  -0.060   0.754   0.666
  100       -0.031  -0.067   0.768   0.670
  101       -0.032  -0.065   0.715   0.617
  102       -0.031  -0.062   0.741   0.648
  103       -0.029  -0.063   0.762   0.670
  104       -0.030  -0.061   0.729   0.638
  105       -0.029  -0.062   0.749   0.659
  106       -0.026  -0.057   0.751   0.669
  107       -0.027  -0.056   0.719   0.637
  108       -0.024  -0.053   0.761   0.684
--------------------------------------------------
tot         -1.673  -4.738 219.235 212.825
 
 BZINTS: Fermi energy:  6.654163;918.000000 electrons
         Band energy:3940.528215;  BLOECHL correction: -0.022588

 total amount of memory used by VASP MPI-rank0   271182. kBytes
=======================================================================

   base      :      30000. kBytes
   nonlr-proj:      18693. kBytes
   fftplans  :       2874. kBytes
   grid      :       7434. kBytes
   one-center:        124. kBytes
   wavefun   :     212057. kBytes
 
  
  
 General timing and accounting informations for this job:
 ========================================================
  
                  Total CPU time used (sec):     1928.060
                            User time (sec):     1873.650
                          System time (sec):       54.410
                         Elapsed time (sec):     1946.209
  
                   Maximum memory used (kb):      595076.
                   Average memory used (kb):           0.
  
                          Minor page faults:       623115
                          Major page faults:            0
                 Voluntary context switches:         9443
