SQS-NiFe                                
           1
     5.362500   -7.150000   -1.787500
    -7.150000   -5.362500    1.787500
    -3.575000    3.575000  -14.300000
   Fe   Ni
  81  27
Direct configuration=     1
   0.12881431  0.98062363  0.23538950
   0.38285263  0.94957659  0.19672271
   0.15756221  0.82963338  0.08207557
   0.64235300  0.91521417  0.15743539
   0.41713494  0.79970600  0.04570596
   0.90767208  0.87641894  0.12204117
   0.69177390  0.76902942  0.00969434
   0.25135843  0.96686025  0.46276150
   0.50869305  0.92678196  0.42325569
   0.29813891  0.82147818  0.32251309
   0.07723362  0.70479386  0.21062263
   0.76878177  0.88552699  0.38843774
   0.55189095  0.77865446  0.27933850
   0.33353880  0.67046990  0.17099170
   0.11110068  0.55706446  0.05818574
   0.81333602  0.74122246  0.24173582
   0.59293210  0.63431204  0.12636414
   0.36198057  0.51457801  0.01897764
   0.85868125  0.59206800  0.09184802
   0.12080067  0.97245378  0.72994706
   0.38392021  0.94665906  0.69532224
   0.64221480  0.91278544  0.65788998
   0.41540192  0.80350357  0.54411698
   0.19822587  0.68970769  0.43244236
   0.67483829  0.75972120  0.51066711
   0.46154942  0.65208211  0.39521651
   0.24592460  0.53190536  0.28539896
   0.93483706  0.72134424  0.47431382
   0.50810778  0.49763391  0.24673595
   0.05617313  0.28237123  0.03111132
   0.98179767  0.57068461  0.32629327
   0.76400217  0.46154215  0.21158032
   0.53475063  0.35172631  0.09754805
   0.03501406  0.84570084  0.85359886
   0.52137845  0.92624684  0.92775514
   0.29656363  0.80934955  0.81831588
   0.07043475  0.69801888  0.70080485
   0.33080989  0.67254334  0.66765005
   0.11339156  0.55109875  0.55030681
   0.81131850  0.74677023  0.73982293
   0.58861767  0.63169918  0.63124905
   0.37940233  0.52165518  0.51507158
   0.15564056  0.40241632  0.40428849
   0.85096977  0.58840706  0.59220630
   0.63841482  0.48080110  0.47836038
   0.41744442  0.36807824  0.36724567
   0.18597848  0.25174777  0.25497185
   0.44753328  0.22058665  0.22020820
   0.22073055  0.10645734  0.10518981
   0.99057898  0.00164245  0.99930749
   0.92733544  0.29251344  0.29760417
   0.70515005  0.18702109  0.17987065
   0.46453592  0.64944078  0.90258197
   0.23951327  0.53171733  0.79163334
   0.02666567  0.42016980  0.67529138
   0.72760473  0.61976446  0.86190400
   0.50405987  0.50674067  0.75309029
   0.28806602  0.39248024  0.63906391
   0.05561249  0.27214434  0.52561733
   0.76503528  0.46397356  0.71385752
   0.31832488  0.24360065  0.49173128
   0.80063688  0.30919072  0.56534473
   0.57961634  0.20680791  0.45381183
   0.35317539  0.09531706  0.34700507
   0.61355320  0.05939785  0.30718210
   0.87179402  0.01966171  0.27184546
   0.63222729  0.48405239  0.98137075
   0.40658994  0.36414526  0.87133397
   0.18761052  0.24940598  0.75981688
   0.89115829  0.44317799  0.94172861
   0.67015283  0.33646570  0.83291248
   0.45195126  0.22455556  0.72169304
   0.22019655  0.10968130  0.61100026
   0.99253983  0.99868958  0.49919619
   0.92951896  0.29180579  0.79342556
   0.48394977  0.08039208  0.57259798
   0.73913197  0.03490303  0.53524382
   0.09162785  0.12711770  0.88276427
   0.58092909  0.20393102  0.95441618
   0.35183045  0.08596441  0.84541487
   0.61623078  0.05594910  0.80653330
   0.03315482  0.85317755  0.35420339
   0.15815596  0.83196520  0.58193750
   0.90071341  0.86944500  0.62073153
   0.02158570  0.42473679  0.17786202
   0.72252812  0.60777628  0.36056373
   0.27857011  0.38750515  0.13896774
   0.79961225  0.31676430  0.06283304
   0.25448163  0.95895536  0.96247187
   0.77944052  0.89229057  0.88775581
   0.55511567  0.78293226  0.78037386
   0.89133049  0.44086500  0.44318251
   0.67483183  0.33223675  0.33153547
   0.47717696  0.07437914  0.07045197
   0.96049215  0.14950048  0.14825654
   0.74042644  0.04147676  0.03648513
   0.20018523  0.68190651  0.93611067
   0.94356571  0.72161332  0.97072229
   0.98422223  0.57295765  0.82481607
   0.54768489  0.35470677  0.60268734
   0.09065035  0.12798400  0.38020085
   0.83344494  0.16649041  0.41666609
   0.14661653  0.40425375  0.90796292
   0.70737200  0.18549005  0.68487546
   0.96068584  0.14214790  0.64854433
   0.31377607  0.23856493  0.99022116
   0.83535458  0.16888642  0.91539425
   0.86990560  0.01946014  0.76826915
