  71  71   1   0
  0.2557372E+02  0.9967380E-09  0.9967380E-09  0.2110375E-08  0.5000000E-15
  1.000000000000000E-004
  CAR 
 SQS-NiFe                                
     10.96429818    -23.90021227  301      0.52801276      1.00000000
    -23.900  0.0000E+00  0.0000E+00  0.0000E+00  0.0000E+00
    -23.784  0.0000E+00  0.0000E+00  0.0000E+00  0.0000E+00
    -23.668  0.0000E+00  0.0000E+00  0.0000E+00  0.0000E+00
    -23.552 -0.9879E-30  0.0000E+00 -0.1148E-30  0.0000E+00
    -23.435 -0.9632E-26 -0.1520E-31 -0.1119E-26 -0.1766E-32
    -23.319 -0.4753E-22 -0.1987E-27 -0.5524E-23 -0.2310E-28
    -23.203 -0.1185E-18 -0.1316E-23 -0.1378E-19 -0.1529E-24
    -23.087 -0.1493E-15 -0.4407E-20 -0.1736E-16 -0.5123E-21
    -22.970 -0.9148E-13 -0.7455E-17 -0.1065E-13 -0.8669E-18
    -22.854 -0.2892E-10 -0.6160E-14 -0.3371E-11 -0.7168E-15
    -22.738 -0.4557E-08 -0.2625E-11 -0.5330E-09 -0.3058E-12
    -22.622 -0.3549E-06 -0.5591E-09 -0.4178E-07 -0.6528E-10
    -22.506 -0.1344E-04 -0.5912E-07 -0.1603E-05 -0.6935E-08
    -22.389 -0.2389E-03 -0.3064E-05 -0.2937E-04 -0.3630E-06
    -22.273 -0.1823E-02 -0.7596E-04 -0.2412E-03 -0.9190E-05
    -22.157 -0.3941E-02 -0.8506E-03 -0.6992E-03 -0.1080E-03
    -22.041  0.1275E-01 -0.3558E-02  0.7826E-03 -0.5216E-03
    -21.925  0.6172E-01  0.1111E-02  0.7955E-02 -0.3925E-03
    -21.808  0.7730E-01  0.3911E-01  0.1694E-01  0.4153E-02
    -21.692  0.3130E-01  0.7996E-01  0.2058E-01  0.1345E-01
    -21.576 -0.1161E-02  0.5422E-01  0.2044E-01  0.1975E-01
    -21.460 -0.3122E-02  0.7824E-02  0.2008E-01  0.2066E-01
    -21.343 -0.6266E-03 -0.4040E-02  0.2001E-01  0.2019E-01
    -21.227 -0.4938E-04 -0.1431E-02  0.2000E-01  0.2002E-01
    -21.111 -0.1780E-05 -0.1635E-03  0.2000E-01  0.2000E-01
    -20.995 -0.3085E-07 -0.8188E-05  0.2000E-01  0.2000E-01
    -20.879 -0.2626E-09 -0.1939E-06  0.2000E-01  0.2000E-01
    -20.762 -0.1111E-11 -0.2240E-08  0.2000E-01  0.2000E-01
    -20.646 -0.2369E-14 -0.1280E-10  0.2000E-01  0.2000E-01
    -20.530  0.0000E+00 -0.3654E-13  0.2000E-01  0.2000E-01
    -20.414  0.0000E+00 -0.3821E-16  0.2000E-01  0.2000E-01
    -20.298  0.0000E+00  0.0000E+00  0.2000E-01  0.2000E-01
    -20.181 -0.5329E-29  0.0000E+00  0.2000E-01  0.2000E-01
    -20.065 -0.4840E-25  0.0000E+00  0.2000E-01  0.2000E-01
    -19.949 -0.2227E-21 -0.1366E-28  0.2000E-01  0.2000E-01
    -19.833 -0.5188E-18 -0.1157E-24  0.2000E-01  0.2000E-01
    -19.716 -0.5923E-15 -0.4968E-21  0.2000E-01  0.2000E-01
    -19.600 -0.3514E-12 -0.1079E-17  0.2000E-01  0.2000E-01
    -19.484 -0.1046E-09 -0.1157E-14  0.2000E-01  0.2000E-01
    -19.368 -0.1561E-07 -0.6343E-12  0.2000E-01  0.2000E-01
    -19.252 -0.1160E-05 -0.1757E-09  0.2000E-01  0.2000E-01
    -19.135 -0.4238E-04 -0.2437E-07  0.1999E-01  0.2000E-01
    -19.019 -0.7396E-03 -0.1680E-05  0.1991E-01  0.2000E-01
    -18.903 -0.5709E-02 -0.5677E-04  0.1925E-01  0.1999E-01
    -18.787 -0.1386E-01 -0.9117E-03  0.1763E-01  0.1989E-01
    -18.671  0.3339E-01 -0.6391E-02  0.2152E-01  0.1914E-01
    -18.554  0.2019E+00 -0.1289E-01  0.4498E-01  0.1765E-01
    -18.438  0.3044E+00  0.4267E-01  0.8035E-01  0.2261E-01
    -18.322  0.1695E+00  0.2114E+00  0.1000E+00  0.4718E-01
    -18.206  0.1780E-01  0.2969E+00  0.1021E+00  0.8168E-01
    -18.089 -0.1328E-01  0.1587E+00  0.1006E+00  0.1001E+00
    -17.973 -0.4383E-02  0.1610E-01  0.1001E+00  0.1020E+00
    -17.857 -0.5115E-03 -0.1246E-01  0.1000E+00  0.1005E+00
    -17.741 -0.3303E-04 -0.4158E-02  0.1000E+00  0.1001E+00
    -17.625 -0.1264E-03 -0.4974E-03  0.9998E-01  0.1000E+00
    -17.508 -0.1202E-02 -0.5365E-04  0.9984E-01  0.1000E+00
    -17.392 -0.3947E-02 -0.3981E-03  0.9939E-01  0.9995E-01
    -17.276  0.5074E-02 -0.2464E-02  0.9998E-01  0.9966E-01
    -17.160  0.4895E-01 -0.3093E-02  0.1057E+00  0.9930E-01
    -17.044  0.8072E-01  0.2140E-01  0.1150E+00  0.1018E+00
    -16.927  0.4446E-01  0.7092E-01  0.1202E+00  0.1100E+00
    -16.811  0.3098E-02  0.7066E-01  0.1206E+00  0.1182E+00
    -16.695 -0.3798E-02  0.2110E-01  0.1201E+00  0.1207E+00
    -16.579 -0.1031E-02 -0.3135E-02  0.1200E+00  0.1203E+00
    -16.462 -0.1003E-03 -0.2443E-02  0.1200E+00  0.1200E+00
    -16.346 -0.4362E-05 -0.3913E-03  0.1200E+00  0.1200E+00
    -16.230 -0.9045E-07 -0.2592E-04  0.1200E+00  0.1200E+00
    -16.114 -0.9177E-09 -0.7973E-06  0.1200E+00  0.1200E+00
    -15.998 -0.4618E-11 -0.1186E-07  0.1200E+00  0.1200E+00
    -15.881 -0.1163E-13 -0.8695E-10  0.1200E+00  0.1200E+00
    -15.765  0.0000E+00 -0.3174E-12  0.1200E+00  0.1200E+00
    -15.649  0.0000E+00 -0.5732E-15  0.1200E+00  0.1200E+00
    -15.533  0.0000E+00  0.0000E+00  0.1200E+00  0.1200E+00
    -15.417  0.0000E+00  0.0000E+00  0.1200E+00  0.1200E+00
    -15.300  0.0000E+00  0.0000E+00  0.1200E+00  0.1200E+00
    -15.184  0.0000E+00  0.0000E+00  0.1200E+00  0.1200E+00
    -15.068  0.0000E+00  0.0000E+00  0.1200E+00  0.1200E+00
    -14.952  0.0000E+00  0.0000E+00  0.1200E+00  0.1200E+00
    -14.835  0.0000E+00  0.0000E+00  0.1200E+00  0.1200E+00
    -14.719  0.0000E+00  0.0000E+00  0.1200E+00  0.1200E+00
    -14.603  0.0000E+00  0.0000E+00  0.1200E+00  0.1200E+00
    -14.487  0.0000E+00  0.0000E+00  0.1200E+00  0.1200E+00
    -14.371  0.0000E+00  0.0000E+00  0.1200E+00  0.1200E+00
    -14.254  0.0000E+00  0.0000E+00  0.1200E+00  0.1200E+00
    -14.138  0.0000E+00  0.0000E+00  0.1200E+00  0.1200E+00
    -14.022  0.0000E+00  0.0000E+00  0.1200E+00  0.1200E+00
    -13.906  0.0000E+00  0.0000E+00  0.1200E+00  0.1200E+00
    -13.790  0.0000E+00  0.0000E+00  0.1200E+00  0.1200E+00
    -13.673  0.0000E+00  0.0000E+00  0.1200E+00  0.1200E+00
    -13.557  0.0000E+00  0.0000E+00  0.1200E+00  0.1200E+00
    -13.441  0.0000E+00  0.0000E+00  0.1200E+00  0.1200E+00
    -13.325  0.0000E+00  0.0000E+00  0.1200E+00  0.1200E+00
    -13.208  0.0000E+00  0.0000E+00  0.1200E+00  0.1200E+00
    -13.092  0.0000E+00  0.0000E+00  0.1200E+00  0.1200E+00
    -12.976  0.0000E+00  0.0000E+00  0.1200E+00  0.1200E+00
    -12.860  0.0000E+00  0.0000E+00  0.1200E+00  0.1200E+00
    -12.744  0.0000E+00  0.0000E+00  0.1200E+00  0.1200E+00
    -12.627  0.0000E+00  0.0000E+00  0.1200E+00  0.1200E+00
    -12.511  0.0000E+00  0.0000E+00  0.1200E+00  0.1200E+00
    -12.395  0.0000E+00  0.0000E+00  0.1200E+00  0.1200E+00
    -12.279  0.0000E+00  0.0000E+00  0.1200E+00  0.1200E+00
    -12.162  0.0000E+00  0.0000E+00  0.1200E+00  0.1200E+00
    -12.046  0.0000E+00  0.0000E+00  0.1200E+00  0.1200E+00
    -11.930  0.0000E+00  0.0000E+00  0.1200E+00  0.1200E+00
    -11.814  0.0000E+00  0.0000E+00  0.1200E+00  0.1200E+00
    -11.698  0.0000E+00  0.0000E+00  0.1200E+00  0.1200E+00
    -11.581  0.0000E+00  0.0000E+00  0.1200E+00  0.1200E+00
    -11.465  0.0000E+00  0.0000E+00  0.1200E+00  0.1200E+00
    -11.349  0.0000E+00  0.0000E+00  0.1200E+00  0.1200E+00
    -11.233  0.0000E+00  0.0000E+00  0.1200E+00  0.1200E+00
    -11.117  0.0000E+00  0.0000E+00  0.1200E+00  0.1200E+00
    -11.000  0.0000E+00  0.0000E+00  0.1200E+00  0.1200E+00
    -10.884  0.0000E+00  0.0000E+00  0.1200E+00  0.1200E+00
    -10.768  0.0000E+00  0.0000E+00  0.1200E+00  0.1200E+00
    -10.652  0.0000E+00  0.0000E+00  0.1200E+00  0.1200E+00
    -10.535  0.0000E+00  0.0000E+00  0.1200E+00  0.1200E+00
    -10.419  0.0000E+00  0.0000E+00  0.1200E+00  0.1200E+00
    -10.303  0.0000E+00  0.0000E+00  0.1200E+00  0.1200E+00
    -10.187  0.0000E+00  0.0000E+00  0.1200E+00  0.1200E+00
    -10.071  0.0000E+00  0.0000E+00  0.1200E+00  0.1200E+00
     -9.954  0.0000E+00  0.0000E+00  0.1200E+00  0.1200E+00
     -9.838 -0.8505E-31  0.0000E+00  0.1200E+00  0.1200E+00
     -9.722 -0.9397E-27 -0.6792E-29  0.1200E+00  0.1200E+00
     -9.606 -0.5297E-23 -0.4995E-25  0.1200E+00  0.1200E+00
     -9.490 -0.1522E-19 -0.1871E-21  0.1200E+00  0.1200E+00
     -9.373 -0.2226E-16 -0.3577E-18  0.1200E+00  0.1200E+00
     -9.257 -0.1600E-13 -0.3402E-15  0.1200E+00  0.1200E+00
     -9.141 -0.5981E-11 -0.1690E-12  0.1200E+00  0.1200E+00
     -9.025 -0.1125E-08 -0.4320E-10  0.1200E+00  0.1200E+00
     -8.908 -0.1057E-06 -0.5672E-08  0.1200E+00  0.1200E+00
     -8.792 -0.4886E-05 -0.3813E-06  0.1200E+00  0.1200E+00
     -8.676 -0.1082E-03 -0.1297E-04  0.1200E+00  0.1200E+00
     -8.560 -0.1076E-02 -0.2162E-03  0.1199E+00  0.1200E+00
     -8.444 -0.3819E-02 -0.1623E-02  0.1194E+00  0.1198E+00
     -8.327  0.3461E-02 -0.3825E-02  0.1198E+00  0.1193E+00
     -8.211  0.4466E-01  0.9593E-02  0.1250E+00  0.1205E+00
     -8.095  0.7985E-01  0.5498E-01  0.1343E+00  0.1268E+00
     -7.979  0.5213E-01  0.8153E-01  0.1403E+00  0.1363E+00
     -7.863  0.2726E-01  0.6316E-01  0.1435E+00  0.1437E+00
     -7.746  0.4647E-01  0.5500E-01  0.1489E+00  0.1501E+00
     -7.630  0.4426E-01  0.3868E-01  0.1541E+00  0.1545E+00
     -7.514  0.1400E-01  0.1169E-01  0.1557E+00  0.1559E+00
     -7.398  0.1861E-01  0.2386E-01  0.1579E+00  0.1587E+00
     -7.281  0.5056E-01  0.5441E-01  0.1637E+00  0.1650E+00
     -7.165  0.6721E-01  0.6717E-01  0.1715E+00  0.1728E+00
     -7.049  0.6195E-01  0.5839E-01  0.1787E+00  0.1796E+00
     -6.933  0.2988E-01  0.2413E-01  0.1822E+00  0.1824E+00
     -6.817 -0.2686E-02 -0.4786E-02  0.1819E+00  0.1818E+00
     -6.700 -0.4255E-02 -0.2897E-02  0.1814E+00  0.1815E+00
     -6.584  0.4818E-01  0.5117E-01  0.1870E+00  0.1874E+00
     -6.468  0.1310E+00  0.1284E+00  0.2022E+00  0.2024E+00
     -6.352  0.1536E+00  0.1268E+00  0.2201E+00  0.2171E+00
     -6.236  0.1351E+00  0.8136E-01  0.2358E+00  0.2266E+00
     -6.119  0.1281E+00  0.1095E+00  0.2507E+00  0.2393E+00
     -6.003  0.1100E+00  0.1517E+00  0.2634E+00  0.2569E+00
     -5.887  0.9522E-01  0.1214E+00  0.2745E+00  0.2710E+00
     -5.771  0.1146E+00  0.7402E-01  0.2878E+00  0.2796E+00
     -5.654  0.1593E+00  0.6679E-01  0.3063E+00  0.2874E+00
     -5.538  0.1811E+00  0.1352E+00  0.3274E+00  0.3031E+00
     -5.422  0.1701E+00  0.2072E+00  0.3472E+00  0.3272E+00
     -5.306  0.1724E+00  0.2082E+00  0.3672E+00  0.3514E+00
     -5.190  0.2196E+00  0.1593E+00  0.3927E+00  0.3699E+00
     -5.073  0.3641E+00  0.1152E+00  0.4350E+00  0.3833E+00
     -4.957  0.5255E+00  0.1637E+00  0.4961E+00  0.4023E+00
     -4.841  0.4954E+00  0.3254E+00  0.5537E+00  0.4401E+00
     -4.725  0.3092E+00  0.4963E+00  0.5896E+00  0.4978E+00
     -4.609  0.1891E+00  0.4938E+00  0.6116E+00  0.5552E+00
     -4.492  0.2099E+00  0.3331E+00  0.6360E+00  0.5939E+00
     -4.376  0.2973E+00  0.2234E+00  0.6705E+00  0.6199E+00
     -4.260  0.3570E+00  0.2591E+00  0.7120E+00  0.6500E+00
     -4.144  0.4010E+00  0.3117E+00  0.7586E+00  0.6862E+00
     -4.027  0.4666E+00  0.2928E+00  0.8129E+00  0.7202E+00
     -3.911  0.5495E+00  0.2996E+00  0.8767E+00  0.7551E+00
     -3.795  0.6392E+00  0.2647E+00  0.9510E+00  0.7858E+00
     -3.679  0.6656E+00  0.2773E+00  0.1028E+01  0.8180E+00
     -3.563  0.6425E+00  0.4978E+00  0.1103E+01  0.8759E+00
     -3.446  0.7930E+00  0.6945E+00  0.1195E+01  0.9566E+00
     -3.330  0.1182E+01  0.6324E+00  0.1333E+01  0.1030E+01
     -3.214  0.1330E+01  0.4519E+00  0.1487E+01  0.1083E+01
     -3.098  0.1136E+01  0.3914E+00  0.1619E+01  0.1128E+01
     -2.982  0.9793E+00  0.6094E+00  0.1733E+01  0.1199E+01
     -2.865  0.1002E+01  0.9700E+00  0.1849E+01  0.1312E+01
     -2.749  0.1134E+01  0.1065E+01  0.1981E+01  0.1435E+01
     -2.633  0.1162E+01  0.9647E+00  0.2116E+01  0.1548E+01
     -2.517  0.1141E+01  0.9458E+00  0.2249E+01  0.1658E+01
     -2.400  0.1191E+01  0.9667E+00  0.2387E+01  0.1770E+01
     -2.284  0.1238E+01  0.9893E+00  0.2531E+01  0.1885E+01
     -2.168  0.1340E+01  0.1027E+01  0.2687E+01  0.2004E+01
     -2.052  0.1465E+01  0.1056E+01  0.2857E+01  0.2127E+01
     -1.936  0.1642E+01  0.1112E+01  0.3048E+01  0.2256E+01
     -1.819  0.1959E+01  0.1184E+01  0.3276E+01  0.2394E+01
     -1.703  0.2253E+01  0.1183E+01  0.3537E+01  0.2531E+01
     -1.587  0.2270E+01  0.1202E+01  0.3801E+01  0.2671E+01
     -1.471  0.2012E+01  0.1329E+01  0.4035E+01  0.2825E+01
     -1.354  0.1569E+01  0.1460E+01  0.4217E+01  0.2995E+01
     -1.238  0.1315E+01  0.1627E+01  0.4370E+01  0.3184E+01
     -1.122  0.1532E+01  0.1919E+01  0.4548E+01  0.3407E+01
     -1.006  0.1801E+01  0.2173E+01  0.4758E+01  0.3660E+01
     -0.890  0.1808E+01  0.2183E+01  0.4968E+01  0.3913E+01
     -0.773  0.1755E+01  0.1868E+01  0.5172E+01  0.4130E+01
     -0.657  0.1915E+01  0.1419E+01  0.5394E+01  0.4295E+01
     -0.541  0.2070E+01  0.1348E+01  0.5635E+01  0.4452E+01
     -0.425  0.2062E+01  0.1573E+01  0.5874E+01  0.4635E+01
     -0.309  0.2350E+01  0.1686E+01  0.6147E+01  0.4831E+01
     -0.192  0.2784E+01  0.1669E+01  0.6471E+01  0.5025E+01
     -0.076  0.2518E+01  0.1677E+01  0.6764E+01  0.5220E+01
      0.040  0.1560E+01  0.1769E+01  0.6945E+01  0.5425E+01
      0.156  0.7401E+00  0.1828E+01  0.7031E+01  0.5638E+01
      0.273  0.4675E+00  0.1789E+01  0.7085E+01  0.5846E+01
      0.389  0.4831E+00  0.1817E+01  0.7141E+01  0.6057E+01
      0.505  0.4369E+00  0.2010E+01  0.7192E+01  0.6290E+01
      0.621  0.2915E+00  0.2191E+01  0.7226E+01  0.6545E+01
      0.737  0.2260E+00  0.2068E+01  0.7252E+01  0.6785E+01
      0.854  0.2175E+00  0.1575E+01  0.7278E+01  0.6968E+01
      0.970  0.1626E+00  0.1003E+01  0.7296E+01  0.7085E+01
      1.086  0.1616E+00  0.6438E+00  0.7315E+01  0.7160E+01
      1.202  0.2155E+00  0.4889E+00  0.7340E+01  0.7216E+01
      1.318  0.1819E+00  0.3971E+00  0.7361E+01  0.7263E+01
      1.435  0.1629E+00  0.2695E+00  0.7380E+01  0.7294E+01
      1.551  0.2782E+00  0.1890E+00  0.7413E+01  0.7316E+01
      1.667  0.3603E+00  0.2289E+00  0.7455E+01  0.7342E+01
      1.783  0.2844E+00  0.2119E+00  0.7488E+01  0.7367E+01
      1.900  0.1438E+00  0.1755E+00  0.7504E+01  0.7387E+01
      2.016  0.6195E-01  0.2513E+00  0.7512E+01  0.7417E+01
      2.132  0.7122E-01  0.3407E+00  0.7520E+01  0.7456E+01
      2.248  0.1740E+00  0.2971E+00  0.7540E+01  0.7491E+01
      2.364  0.2724E+00  0.1666E+00  0.7572E+01  0.7510E+01
      2.481  0.2769E+00  0.1203E+00  0.7604E+01  0.7524E+01
      2.597  0.2192E+00  0.1807E+00  0.7629E+01  0.7545E+01
      2.713  0.1998E+00  0.2519E+00  0.7653E+01  0.7574E+01
      2.829  0.2461E+00  0.2842E+00  0.7681E+01  0.7607E+01
      2.945  0.2228E+00  0.2646E+00  0.7707E+01  0.7638E+01
      3.062  0.1308E+00  0.2429E+00  0.7722E+01  0.7666E+01
      3.178  0.1320E+00  0.2397E+00  0.7738E+01  0.7694E+01
      3.294  0.2325E+00  0.1985E+00  0.7765E+01  0.7717E+01
      3.410  0.2653E+00  0.1578E+00  0.7795E+01  0.7736E+01
      3.527  0.1704E+00  0.1902E+00  0.7815E+01  0.7758E+01
      3.643  0.1218E+00  0.2196E+00  0.7829E+01  0.7783E+01
      3.759  0.1790E+00  0.1954E+00  0.7850E+01  0.7806E+01
      3.875  0.2233E+00  0.1485E+00  0.7876E+01  0.7823E+01
      3.991  0.2027E+00  0.1822E+00  0.7900E+01  0.7844E+01
      4.108  0.1652E+00  0.2548E+00  0.7919E+01  0.7874E+01
      4.224  0.1704E+00  0.2220E+00  0.7939E+01  0.7900E+01
      4.340  0.2149E+00  0.1575E+00  0.7964E+01  0.7918E+01
      4.456  0.2281E+00  0.1707E+00  0.7990E+01  0.7938E+01
      4.572  0.1703E+00  0.2223E+00  0.8010E+01  0.7964E+01
      4.689  0.1119E+00  0.2280E+00  0.8023E+01  0.7990E+01
      4.805  0.1325E+00  0.1746E+00  0.8038E+01  0.8011E+01
      4.921  0.1461E+00  0.1313E+00  0.8055E+01  0.8026E+01
      5.037  0.1278E+00  0.1454E+00  0.8070E+01  0.8043E+01
      5.154  0.1219E+00  0.1418E+00  0.8084E+01  0.8059E+01
      5.270  0.1018E+00  0.1236E+00  0.8096E+01  0.8074E+01
      5.386  0.8778E-01  0.1177E+00  0.8106E+01  0.8087E+01
      5.502  0.1446E+00  0.1096E+00  0.8123E+01  0.8100E+01
      5.618  0.2373E+00  0.1313E+00  0.8151E+01  0.8115E+01
      5.735  0.2347E+00  0.1878E+00  0.8178E+01  0.8137E+01
      5.851  0.1642E+00  0.2170E+00  0.8197E+01  0.8162E+01
      5.967  0.1557E+00  0.2036E+00  0.8215E+01  0.8186E+01
      6.083  0.1749E+00  0.1971E+00  0.8236E+01  0.8209E+01
      6.199  0.1610E+00  0.2202E+00  0.8254E+01  0.8234E+01
      6.316  0.1563E+00  0.2096E+00  0.8272E+01  0.8259E+01
      6.432  0.1509E+00  0.1320E+00  0.8290E+01  0.8274E+01
      6.548  0.1484E+00  0.9336E-01  0.8307E+01  0.8285E+01
      6.664  0.1729E+00  0.1305E+00  0.8327E+01  0.8300E+01
      6.781  0.2424E+00  0.1961E+00  0.8356E+01  0.8323E+01
      6.897  0.3338E+00  0.2526E+00  0.8394E+01  0.8352E+01
      7.013  0.3244E+00  0.2512E+00  0.8432E+01  0.8381E+01
      7.129  0.2309E+00  0.2223E+00  0.8459E+01  0.8407E+01
      7.245  0.2053E+00  0.2642E+00  0.8483E+01  0.8438E+01
      7.362  0.2881E+00  0.3353E+00  0.8516E+01  0.8477E+01
      7.478  0.3427E+00  0.3396E+00  0.8556E+01  0.8516E+01
      7.594  0.3163E+00  0.2919E+00  0.8593E+01  0.8550E+01
      7.710  0.3217E+00  0.2651E+00  0.8630E+01  0.8581E+01
      7.826  0.3293E+00  0.3000E+00  0.8668E+01  0.8616E+01
      7.943  0.2911E+00  0.3828E+00  0.8702E+01  0.8661E+01
      8.059  0.3087E+00  0.4084E+00  0.8738E+01  0.8708E+01
      8.175  0.3735E+00  0.3372E+00  0.8782E+01  0.8747E+01
      8.291  0.3712E+00  0.2795E+00  0.8825E+01  0.8780E+01
      8.408  0.2577E+00  0.3047E+00  0.8855E+01  0.8815E+01
      8.524  0.1288E+00  0.2976E+00  0.8870E+01  0.8850E+01
      8.640  0.5347E-01  0.1689E+00  0.8876E+01  0.8869E+01
      8.756  0.1985E-01  0.5253E-01  0.8878E+01  0.8875E+01
      8.872  0.1054E-01  0.1874E-01  0.8879E+01  0.8878E+01
      8.989  0.5731E-02  0.1446E-01  0.8880E+01  0.8879E+01
      9.105  0.7894E-03  0.7153E-02  0.8880E+01  0.8880E+01
      9.221 -0.5979E-03  0.4920E-03  0.8880E+01  0.8880E+01
      9.337 -0.2346E-03 -0.7717E-03  0.8880E+01  0.8880E+01
      9.454 -0.3077E-04 -0.2477E-03  0.8880E+01  0.8880E+01
      9.570 -0.1775E-05 -0.2932E-04  0.8880E+01  0.8880E+01
      9.686 -0.4841E-07 -0.1575E-05  0.8880E+01  0.8880E+01
      9.802 -0.6432E-09 -0.4063E-07  0.8880E+01  0.8880E+01
      9.918 -0.4225E-11 -0.5150E-09  0.8880E+01  0.8880E+01
     10.035 -0.1384E-13 -0.3245E-11  0.8880E+01  0.8880E+01
     10.151 -0.2548E-16 -0.1023E-13  0.8880E+01  0.8880E+01
     10.267  0.0000E+00 -0.1698E-16  0.8880E+01  0.8880E+01
     10.383  0.0000E+00  0.0000E+00  0.8880E+01  0.8880E+01
     10.499  0.0000E+00  0.0000E+00  0.8880E+01  0.8880E+01
     10.616  0.0000E+00  0.0000E+00  0.8880E+01  0.8880E+01
     10.732  0.0000E+00  0.0000E+00  0.8880E+01  0.8880E+01
     10.848  0.0000E+00  0.0000E+00  0.8880E+01  0.8880E+01
     10.964  0.0000E+00  0.0000E+00  0.8880E+01  0.8880E+01
     10.96429818    -23.90021227  301      0.52801276      1.00000000
    -23.900  0.0000E+00  0.0000E+00  0.0000E+00  0.0000E+00  0.0000E+00  0.0000E+00
    -23.784  0.0000E+00  0.0000E+00  0.0000E+00  0.0000E+00  0.0000E+00  0.0000E+00
    -23.668  0.0000E+00  0.0000E+00  0.0000E+00  0.0000E+00  0.0000E+00  0.0000E+00
    -23.552 -0.1064E-39  0.0000E+00 -0.1204E-39  0.0000E+00 -0.1477E-40  0.0000E+00
    -23.435 -0.1038E-35 -0.1524E-41 -0.1174E-35 -0.1941E-41 -0.1440E-36 -0.7964E-43
    -23.319 -0.5120E-32 -0.1994E-37 -0.5793E-32 -0.2538E-37 -0.7104E-33 -0.1042E-38
    -23.203 -0.1277E-28 -0.1320E-33 -0.1445E-28 -0.1681E-33 -0.1772E-29 -0.6896E-35
    -23.087 -0.1609E-25 -0.4421E-30 -0.1820E-25 -0.5628E-30 -0.2232E-26 -0.2309E-31
    -22.970 -0.9857E-23 -0.7479E-27 -0.1115E-22 -0.9521E-27 -0.1368E-23 -0.3907E-28
    -22.854 -0.3116E-20 -0.6180E-24 -0.3525E-20 -0.7868E-24 -0.4323E-21 -0.3228E-25
    -22.738 -0.4911E-18 -0.2634E-21 -0.5555E-18 -0.3353E-21 -0.6814E-19 -0.1376E-22
    -22.622 -0.3825E-16 -0.5610E-19 -0.4326E-16 -0.7141E-19 -0.5307E-17 -0.2930E-20
    -22.506 -0.1448E-14 -0.5932E-17 -0.1638E-14 -0.7550E-17 -0.2009E-15 -0.3098E-18
    -22.389 -0.2575E-13 -0.3074E-15 -0.2912E-13 -0.3913E-15 -0.3572E-14 -0.1606E-16
    -22.273 -0.1965E-12 -0.7622E-14 -0.2222E-12 -0.9701E-14 -0.2726E-13 -0.3981E-15
    -22.157 -0.4248E-12 -0.8536E-13 -0.4804E-12 -0.1086E-12 -0.5893E-13 -0.4458E-14
    -22.041  0.1374E-11 -0.3571E-12  0.1554E-11 -0.4545E-12  0.1906E-12 -0.1865E-13
    -21.925  0.6652E-11  0.1114E-12  0.7523E-11  0.1418E-12  0.9229E-12  0.5819E-14
    -21.808  0.8332E-11  0.3925E-11  0.9422E-11  0.4996E-11  0.1156E-11  0.2050E-12
    -21.692  0.3374E-11  0.8024E-11  0.3816E-11  0.1021E-10  0.4681E-12  0.4191E-12
    -21.576 -0.1251E-12  0.5442E-11 -0.1415E-12  0.6926E-11 -0.1735E-13  0.2842E-12
    -21.460 -0.3365E-12  0.7853E-12 -0.3805E-12  0.9993E-12 -0.4668E-13  0.4101E-13
    -21.343 -0.6755E-13 -0.4054E-12 -0.7638E-13 -0.5160E-12 -0.9370E-14 -0.2117E-13
    -21.227 -0.5323E-14 -0.1436E-12 -0.6020E-14 -0.1828E-12 -0.7385E-15 -0.7501E-14
    -21.111 -0.1919E-15 -0.1641E-13 -0.2170E-15 -0.2089E-13 -0.2662E-16 -0.8571E-15
    -20.995 -0.3325E-17 -0.8219E-15 -0.3760E-17 -0.1046E-14 -0.4613E-18 -0.4291E-16
    -20.879 -0.2831E-19 -0.1947E-16 -0.3201E-19 -0.2477E-16 -0.3928E-20 -0.1016E-17
    -20.762 -0.1198E-21 -0.2248E-18 -0.1355E-21 -0.2861E-18 -0.1662E-22 -0.1174E-19
    -20.646 -0.2554E-24 -0.1285E-20 -0.2888E-24 -0.1635E-20 -0.3543E-25 -0.6710E-22
    -20.530  0.0000E+00 -0.3668E-23  0.0000E+00 -0.4667E-23  0.0000E+00 -0.1915E-24
    -20.414  0.0000E+00 -0.3835E-26  0.0000E+00 -0.4881E-26  0.0000E+00 -0.2003E-27
    -20.298  0.0000E+00  0.0000E+00  0.0000E+00  0.0000E+00  0.0000E+00  0.0000E+00
    -20.181 -0.6527E-38  0.0000E+00 -0.5184E-38  0.0000E+00 -0.1285E-38  0.0000E+00
    -20.065 -0.5926E-34  0.0000E+00 -0.4684E-34  0.0000E+00 -0.1165E-34  0.0000E+00
    -19.949 -0.2725E-30 -0.2133E-37 -0.2144E-30 -0.1624E-37 -0.5354E-31 -0.3953E-38
    -19.833 -0.6339E-27 -0.1807E-33 -0.4968E-27 -0.1369E-33 -0.1245E-27 -0.3348E-34
    -19.716 -0.7215E-24 -0.7752E-30 -0.5650E-24 -0.5848E-30 -0.1416E-24 -0.1436E-30
    -19.600 -0.4267E-21 -0.1682E-26 -0.3328E-21 -0.1264E-26 -0.8369E-22 -0.3116E-27
    -19.484 -0.1263E-18 -0.1801E-23 -0.9849E-19 -0.1346E-23 -0.2477E-19 -0.3336E-24
    -19.368 -0.1868E-16 -0.9839E-21 -0.1461E-16 -0.7341E-21 -0.3666E-17 -0.1823E-21
    -19.252 -0.1370E-14 -0.2712E-18 -0.1079E-14 -0.2020E-18 -0.2691E-15 -0.5028E-19
    -19.135 -0.4902E-13 -0.3732E-16 -0.3911E-13 -0.2782E-16 -0.9658E-14 -0.6928E-17
    -19.019 -0.8286E-12 -0.2542E-14 -0.6764E-12 -0.1902E-14 -0.1641E-12 -0.4728E-15
    -18.903 -0.6053E-11 -0.8422E-13 -0.5158E-11 -0.6360E-13 -0.1212E-11 -0.1573E-13
    -18.787 -0.1255E-10 -0.1310E-11 -0.1217E-10 -0.1007E-11 -0.2606E-11 -0.2464E-12
    -18.671  0.4167E-10 -0.8648E-11  0.3115E-10 -0.6911E-11  0.8048E-11 -0.1651E-11
    -18.554  0.2018E-09 -0.1415E-10  0.1805E-09 -0.1309E-10  0.4092E-10 -0.2866E-11
    -18.438  0.2660E-09  0.6682E-10  0.2663E-09  0.4841E-10  0.5592E-10  0.1228E-10
    -18.322  0.1246E-09  0.2675E-09  0.1445E-09  0.2240E-09  0.2768E-10  0.5199E-10
    -18.206  0.5081E-11  0.3206E-09  0.1378E-10  0.3011E-09  0.1759E-11  0.6548E-10
    -18.089 -0.1096E-10  0.1381E-09 -0.1155E-10  0.1528E-09 -0.2339E-11  0.3057E-10
    -17.973 -0.2931E-11  0.3070E-11 -0.3681E-11  0.1270E-10 -0.6753E-12  0.1672E-11
    -17.857 -0.3042E-12 -0.1249E-10 -0.4214E-12 -0.1243E-10 -0.7366E-13 -0.2613E-11
    -17.741 -0.1577E-13 -0.3262E-11 -0.2367E-13 -0.3907E-11 -0.4177E-14 -0.7559E-12
    -17.625 -0.1942E-13 -0.3431E-12 -0.3461E-13 -0.4534E-12 -0.9325E-14 -0.8456E-13
    -17.508 -0.1822E-12 -0.2226E-13 -0.3255E-12 -0.3157E-13 -0.8828E-13 -0.6440E-14
    -17.392 -0.5983E-12 -0.7509E-13 -0.1069E-11 -0.1093E-12 -0.2899E-12 -0.2999E-13
    -17.276  0.7690E-12 -0.4630E-12  0.1374E-11 -0.6736E-12  0.3726E-12 -0.1852E-12
    -17.160  0.7419E-11 -0.5811E-12  0.1326E-10 -0.8455E-12  0.3595E-11 -0.2325E-12
    -17.044  0.1224E-10  0.4020E-11  0.2186E-10  0.5849E-11  0.5928E-11  0.1608E-11
    -16.927  0.6740E-11  0.1332E-10  0.1204E-10  0.1939E-10  0.3265E-11  0.5331E-11
    -16.811  0.4697E-12  0.1328E-10  0.8390E-12  0.1932E-10  0.2275E-12  0.5312E-11
    -16.695 -0.5757E-12  0.3964E-11 -0.1028E-11  0.5767E-11 -0.2789E-12  0.1586E-11
    -16.579 -0.1563E-12 -0.5890E-12 -0.2792E-12 -0.8571E-12 -0.7572E-13 -0.2357E-12
    -16.462 -0.1520E-13 -0.4590E-12 -0.2715E-13 -0.6678E-12 -0.7363E-14 -0.1836E-12
    -16.346 -0.6612E-15 -0.7352E-13 -0.1181E-14 -0.1070E-12 -0.3203E-15 -0.2941E-13
    -16.230 -0.1371E-16 -0.4871E-14 -0.2449E-16 -0.7086E-14 -0.6642E-17 -0.1949E-14
    -16.114 -0.1391E-18 -0.1498E-15 -0.2485E-18 -0.2180E-15 -0.6740E-19 -0.5994E-16
    -15.998 -0.7000E-21 -0.2228E-17 -0.1251E-20 -0.3242E-17 -0.3391E-21 -0.8915E-18
    -15.881 -0.1762E-23 -0.1634E-19 -0.3149E-23 -0.2377E-19 -0.8539E-24 -0.6536E-20
    -15.765  0.0000E+00 -0.5963E-22  0.0000E+00 -0.8675E-22  0.0000E+00 -0.2386E-22
    -15.649  0.0000E+00 -0.1077E-24  0.0000E+00 -0.1567E-24  0.0000E+00 -0.4309E-25
    -15.533  0.0000E+00  0.0000E+00  0.0000E+00  0.0000E+00  0.0000E+00  0.0000E+00
    -15.417  0.0000E+00  0.0000E+00  0.0000E+00  0.0000E+00  0.0000E+00  0.0000E+00
    -15.300  0.0000E+00  0.0000E+00  0.0000E+00  0.0000E+00  0.0000E+00  0.0000E+00
    -15.184  0.0000E+00  0.0000E+00  0.0000E+00  0.0000E+00  0.0000E+00  0.0000E+00
    -15.068  0.0000E+00  0.0000E+00  0.0000E+00  0.0000E+00  0.0000E+00  0.0000E+00
    -14.952  0.0000E+00  0.0000E+00  0.0000E+00  0.0000E+00  0.0000E+00  0.0000E+00
    -14.835  0.0000E+00  0.0000E+00  0.0000E+00  0.0000E+00  0.0000E+00  0.0000E+00
    -14.719  0.0000E+00  0.0000E+00  0.0000E+00  0.0000E+00  0.0000E+00  0.0000E+00
    -14.603  0.0000E+00  0.0000E+00  0.0000E+00  0.0000E+00  0.0000E+00  0.0000E+00
    -14.487  0.0000E+00  0.0000E+00  0.0000E+00  0.0000E+00  0.0000E+00  0.0000E+00
    -14.371  0.0000E+00  0.0000E+00  0.0000E+00  0.0000E+00  0.0000E+00  0.0000E+00
    -14.254  0.0000E+00  0.0000E+00  0.0000E+00  0.0000E+00  0.0000E+00  0.0000E+00
    -14.138  0.0000E+00  0.0000E+00  0.0000E+00  0.0000E+00  0.0000E+00  0.0000E+00
    -14.022  0.0000E+00  0.0000E+00  0.0000E+00  0.0000E+00  0.0000E+00  0.0000E+00
    -13.906  0.0000E+00  0.0000E+00  0.0000E+00  0.0000E+00  0.0000E+00  0.0000E+00
    -13.790  0.0000E+00  0.0000E+00  0.0000E+00  0.0000E+00  0.0000E+00  0.0000E+00
    -13.673  0.0000E+00  0.0000E+00  0.0000E+00  0.0000E+00  0.0000E+00  0.0000E+00
    -13.557  0.0000E+00  0.0000E+00  0.0000E+00  0.0000E+00  0.0000E+00  0.0000E+00
    -13.441  0.0000E+00  0.0000E+00  0.0000E+00  0.0000E+00  0.0000E+00  0.0000E+00
    -13.325  0.0000E+00  0.0000E+00  0.0000E+00  0.0000E+00  0.0000E+00  0.0000E+00
    -13.208  0.0000E+00  0.0000E+00  0.0000E+00  0.0000E+00  0.0000E+00  0.0000E+00
    -13.092  0.0000E+00  0.0000E+00  0.0000E+00  0.0000E+00  0.0000E+00  0.0000E+00
    -12.976  0.0000E+00  0.0000E+00  0.0000E+00  0.0000E+00  0.0000E+00  0.0000E+00
    -12.860  0.0000E+00  0.0000E+00  0.0000E+00  0.0000E+00  0.0000E+00  0.0000E+00
    -12.744  0.0000E+00  0.0000E+00  0.0000E+00  0.0000E+00  0.0000E+00  0.0000E+00
    -12.627  0.0000E+00  0.0000E+00  0.0000E+00  0.0000E+00  0.0000E+00  0.0000E+00
    -12.511  0.0000E+00  0.0000E+00  0.0000E+00  0.0000E+00  0.0000E+00  0.0000E+00
    -12.395  0.0000E+00  0.0000E+00  0.0000E+00  0.0000E+00  0.0000E+00  0.0000E+00
    -12.279  0.0000E+00  0.0000E+00  0.0000E+00  0.0000E+00  0.0000E+00  0.0000E+00
    -12.162  0.0000E+00  0.0000E+00  0.0000E+00  0.0000E+00  0.0000E+00  0.0000E+00
    -12.046  0.0000E+00  0.0000E+00  0.0000E+00  0.0000E+00  0.0000E+00  0.0000E+00
    -11.930  0.0000E+00  0.0000E+00  0.0000E+00  0.0000E+00  0.0000E+00  0.0000E+00
    -11.814  0.0000E+00  0.0000E+00  0.0000E+00  0.0000E+00  0.0000E+00  0.0000E+00
    -11.698  0.0000E+00  0.0000E+00  0.0000E+00  0.0000E+00  0.0000E+00  0.0000E+00
    -11.581  0.0000E+00  0.0000E+00  0.0000E+00  0.0000E+00  0.0000E+00  0.0000E+00
    -11.465  0.0000E+00  0.0000E+00  0.0000E+00  0.0000E+00  0.0000E+00  0.0000E+00
    -11.349  0.0000E+00  0.0000E+00  0.0000E+00  0.0000E+00  0.0000E+00  0.0000E+00
    -11.233  0.0000E+00  0.0000E+00  0.0000E+00  0.0000E+00  0.0000E+00  0.0000E+00
    -11.117  0.0000E+00  0.0000E+00  0.0000E+00  0.0000E+00  0.0000E+00  0.0000E+00
    -11.000  0.0000E+00  0.0000E+00  0.0000E+00  0.0000E+00  0.0000E+00  0.0000E+00
    -10.884  0.0000E+00  0.0000E+00  0.0000E+00  0.0000E+00  0.0000E+00  0.0000E+00
    -10.768  0.0000E+00  0.0000E+00  0.0000E+00  0.0000E+00  0.0000E+00  0.0000E+00
    -10.652  0.0000E+00  0.0000E+00  0.0000E+00  0.0000E+00  0.0000E+00  0.0000E+00
    -10.535  0.0000E+00  0.0000E+00  0.0000E+00  0.0000E+00  0.0000E+00  0.0000E+00
    -10.419  0.0000E+00  0.0000E+00  0.0000E+00  0.0000E+00  0.0000E+00  0.0000E+00
    -10.303  0.0000E+00  0.0000E+00  0.0000E+00  0.0000E+00  0.0000E+00  0.0000E+00
    -10.187  0.0000E+00  0.0000E+00  0.0000E+00  0.0000E+00  0.0000E+00  0.0000E+00
    -10.071  0.0000E+00  0.0000E+00  0.0000E+00  0.0000E+00  0.0000E+00  0.0000E+00
     -9.954  0.0000E+00  0.0000E+00  0.0000E+00  0.0000E+00  0.0000E+00  0.0000E+00
     -9.838 -0.2049E-32  0.0000E+00 -0.2903E-33  0.0000E+00 -0.2217E-35  0.0000E+00
     -9.722 -0.2136E-28 -0.6515E-30 -0.3040E-29 -0.8732E-31 -0.2691E-31 -0.6047E-34
     -9.606 -0.1130E-24 -0.4728E-26 -0.1616E-25 -0.6342E-27 -0.1656E-27 -0.5314E-30
     -9.490 -0.3029E-21 -0.1738E-22 -0.4358E-22 -0.2333E-23 -0.5162E-24 -0.2453E-26
     -9.373 -0.4114E-18 -0.3231E-19 -0.5959E-19 -0.4344E-20 -0.8137E-21 -0.5924E-23
     -9.257 -0.2731E-15 -0.2943E-16 -0.3986E-16 -0.3965E-17 -0.6267E-18 -0.7400E-20
     -9.141 -0.9393E-13 -0.1387E-13 -0.1382E-13 -0.1874E-14 -0.2491E-15 -0.4675E-17
     -9.025 -0.1619E-10 -0.3285E-11 -0.2406E-11 -0.4456E-12 -0.4952E-13 -0.1545E-14
     -8.908 -0.1389E-08 -0.3891E-09 -0.2086E-09 -0.5311E-10 -0.4886E-11 -0.2586E-12
     -8.792 -0.5847E-07 -0.2287E-07 -0.8886E-08 -0.3149E-08 -0.2361E-09 -0.2167E-10
     -8.676 -0.1175E-05 -0.6569E-06 -0.1810E-06 -0.9158E-07 -0.5444E-08 -0.8929E-09
     -8.560 -0.1059E-04 -0.8892E-05 -0.1653E-05 -0.1262E-05 -0.5626E-07 -0.1753E-07
     -8.444 -0.3479E-04 -0.5131E-04 -0.5470E-05 -0.7480E-05 -0.2104E-06 -0.1524E-06
     -8.327  0.1343E-04 -0.7395E-04  0.2798E-05 -0.1155E-04  0.1285E-06 -0.4592E-06
     -8.211  0.2503E-03  0.2939E-03  0.4317E-04  0.4204E-04  0.2001E-05  0.3266E-06
     -8.095  0.4674E-03  0.1039E-02  0.7147E-04  0.1536E-03  0.1893E-05  0.3002E-05
     -7.979  0.1136E-02  0.1899E-02  0.1423E-03  0.2739E-03 -0.4892E-06  0.6493E-05