       N       E                     dE             d eps       ncg     rms          rms(c)
DAV:   1    -0.358398200932E+03   -0.35840E+03   -0.15882E+03  9720   0.465E+01    0.702E+00
RMM:   2    -0.377668227207E+03   -0.19270E+02   -0.14991E+02  8976   0.220E+01    0.383E+01
RMM:   3    -0.375613490026E+03    0.20547E+01   -0.64111E+00  8970   0.474E+00    0.323E+01
RMM:   4    -0.373758142714E+03    0.18553E+01   -0.20308E+00  9031   0.331E+00    0.180E+01
RMM:   5    -0.372730683326E+03    0.10275E+01   -0.86786E-01  8959   0.234E+00    0.598E+00
RMM:   6    -0.372851675854E+03   -0.12099E+00   -0.24532E-01  8968   0.116E+00    0.870E+00
RMM:   7    -0.372701963930E+03    0.14971E+00   -0.11183E-01  8949   0.852E-01    0.440E+00
RMM:   8    -0.372688763671E+03    0.13200E-01   -0.28519E-02  8957   0.401E-01    0.387E+00
RMM:   9    -0.372698053013E+03   -0.92893E-02   -0.11456E-02  8982   0.240E-01    0.429E+00
RMM:  10    -0.372694382503E+03    0.36705E-02   -0.59024E-03  8979   0.181E-01    0.422E+00
RMM:  11    -0.372670214146E+03    0.24168E-01   -0.11240E-02  8929   0.242E-01    0.349E+00
RMM:  12    -0.372608358797E+03    0.61855E-01   -0.12325E-02  8940   0.248E-01    0.167E+00
RMM:  13    -0.372580506153E+03    0.27853E-01   -0.62894E-03  8952   0.182E-01    0.129E+00
RMM:  14    -0.372549129752E+03    0.31376E-01   -0.42781E-03  8951   0.146E-01    0.121E+00
RMM:  15    -0.372525588172E+03    0.23542E-01   -0.26066E-03  8970   0.123E-01    0.914E-01
RMM:  16    -0.372510178596E+03    0.15410E-01   -0.24364E-03  8946   0.116E-01    0.112E+00
RMM:  17    -0.372484899772E+03    0.25279E-01   -0.21686E-03  8941   0.112E-01    0.952E-01
RMM:  18    -0.372478294686E+03    0.66051E-02   -0.10624E-03  8903   0.797E-02    0.783E-01
RMM:  19    -0.372487873684E+03   -0.95790E-02   -0.11943E-03  8927   0.788E-02    0.795E-01
RMM:  20    -0.372498060121E+03   -0.10186E-01   -0.77218E-04  8927   0.666E-02    0.667E-01
RMM:  21    -0.372518197204E+03   -0.20137E-01   -0.47707E-04  8869   0.457E-02    0.631E-01
RMM:  22    -0.372580083536E+03   -0.61886E-01   -0.15539E-03  8892   0.537E-02    0.276E-01
RMM:  23    -0.372602362494E+03   -0.22279E-01   -0.55674E-04  8862   0.438E-02    0.255E-01
RMM:  24    -0.372650953307E+03   -0.48591E-01   -0.16119E-03  8886   0.504E-02    0.304E-01
RMM:  25    -0.372662091112E+03   -0.11138E-01   -0.32265E-04  8853   0.338E-02    0.253E-01
RMM:  26    -0.372680467730E+03   -0.18377E-01   -0.67189E-04  8863   0.379E-02    0.317E-01
RMM:  27    -0.372692656498E+03   -0.12189E-01   -0.57036E-04  8861   0.357E-02    0.137E-01
RMM:  28    -0.372697858686E+03   -0.52022E-02   -0.25317E-04  8821   0.277E-02    0.175E-01
RMM:  29    -0.372705670640E+03   -0.78120E-02   -0.51200E-04  8826   0.297E-02    0.220E-01
RMM:  30    -0.372707236322E+03   -0.15657E-02   -0.85225E-05  8069   0.172E-02    0.226E-01
RMM:  31    -0.372708498006E+03   -0.12617E-02   -0.58420E-05  7220   0.130E-02    0.130E-01
RMM:  32    -0.372709474568E+03   -0.97656E-03   -0.65871E-05  7503   0.126E-02    0.112E-01
RMM:  33    -0.372709682994E+03   -0.20843E-03   -0.20144E-05  5549   0.893E-03    0.140E-01
RMM:  34    -0.372709852300E+03   -0.16931E-03   -0.25954E-05  5725   0.937E-03    0.119E-01
RMM:  35    -0.372709892208E+03   -0.39908E-04   -0.83299E-06  5198   0.682E-03    0.996E-02
RMM:  36    -0.372710003854E+03   -0.11165E-03   -0.95729E-06  5289   0.553E-03    0.679E-02
RMM:  37    -0.372710070137E+03   -0.66283E-04   -0.60138E-06  5121   0.546E-03    0.523E-02
RMM:  38    -0.372710152837E+03   -0.82700E-04   -0.30926E-06  5065   0.339E-03    0.452E-02
RMM:  39    -0.372710251375E+03   -0.98537E-04   -0.28917E-06  5089   0.337E-03    0.230E-02
RMM:  40    -0.372710291257E+03   -0.39882E-04   -0.95616E-07  4787   0.217E-03    0.170E-02
RMM:  41    -0.372710429811E+03   -0.13855E-03   -0.27997E-06  5125   0.229E-03    0.142E-02
RMM:  42    -0.372710467779E+03   -0.37968E-04   -0.69600E-07  4641   0.176E-03    0.112E-02
RMM:  43    -0.372710534204E+03   -0.66425E-04   -0.97917E-07  4628   0.164E-03    0.131E-02
RMM:  44    -0.372710608792E+03   -0.74588E-04   -0.12260E-06  4635   0.171E-03    0.686E-03
RMM:  45    -0.372710637161E+03   -0.28369E-04   -0.35573E-07  3353   0.120E-03    0.679E-03
RMM:  46    -0.372710713682E+03   -0.76521E-04   -0.13556E-06  3635   0.135E-03    0.715E-03
RMM:  47    -0.372710720376E+03   -0.66942E-05   -0.12822E-07  2112   0.101E-03
   1 F= -.39092521E+03 E0= -.39088716E+03  d E =-.390925E+03  mag=    42.9053
       N       E                     dE             d eps       ncg     rms          rms(c)
DAV:   1    -0.372708780696E+03    0.19330E-02   -0.48395E-01  9108   0.107E+00    0.233E-01
RMM:   2    -0.372732719450E+03   -0.23939E-01   -0.17896E-02  8951   0.286E-01    0.301E+00
RMM:   3    -0.372710514154E+03    0.22205E-01   -0.24694E-03  8938   0.122E-01    0.540E-01
RMM:   4    -0.372710446719E+03    0.67435E-04   -0.14709E-03  8958   0.932E-02    0.524E-01
RMM:   5    -0.372710595705E+03   -0.14899E-03   -0.67393E-04  8923   0.635E-02    0.591E-01
RMM:   6    -0.372709805476E+03    0.79023E-03   -0.42219E-04  8856   0.522E-02    0.304E-01
RMM:   7    -0.372709810490E+03   -0.50135E-05   -0.37128E-04  8869   0.455E-02    0.407E-01
RMM:   8    -0.372709002882E+03    0.80761E-03   -0.29614E-04  8869   0.420E-02    0.240E-01
RMM:   9    -0.372708733877E+03    0.26901E-03   -0.15301E-04  8768   0.304E-02    0.113E-01
RMM:  10    -0.372708632864E+03    0.10101E-03   -0.91553E-05  8576   0.229E-02    0.164E-01
RMM:  11    -0.372708465160E+03    0.16770E-03   -0.52207E-05  7825   0.188E-02    0.546E-02
RMM:  12    -0.372708464241E+03    0.91972E-06   -0.12251E-05  4983   0.892E-03
   2 F= -.39092490E+03 E0= -.39088733E+03  d E =0.314811E-03  mag=    42.9438
       N       E                     dE             d eps       ncg     rms          rms(c)
DAV:   1    -0.372708231436E+03    0.23372E-03   -0.94239E-03  9246   0.155E-01    0.680E-02
RMM:   2    -0.372709368289E+03   -0.11369E-02   -0.81520E-04  8928   0.690E-02    0.636E-01
RMM:   3    -0.372708551602E+03    0.81669E-03   -0.42076E-04  8881   0.526E-02    0.295E-01
RMM:   4    -0.372708349396E+03    0.20221E-03   -0.30520E-05  6191   0.133E-02    0.705E-02
RMM:   5    -0.372708390950E+03   -0.41553E-04   -0.35645E-05  6767   0.145E-02    0.100E-01
RMM:   6    -0.372708437650E+03   -0.46700E-04   -0.15730E-05  5099   0.109E-02    0.835E-02
RMM:   7    -0.372708458348E+03   -0.20698E-04   -0.10968E-05  4926   0.941E-03    0.506E-02
RMM:   8    -0.372708533218E+03   -0.74871E-04   -0.90115E-06  4997   0.749E-03    0.681E-02
RMM:   9    -0.372708667138E+03   -0.13392E-03   -0.89543E-06  5102   0.803E-03    0.438E-02
RMM:  10    -0.372708723002E+03   -0.55863E-04   -0.54587E-06  4958   0.626E-03    0.261E-02
RMM:  11    -0.372708836600E+03   -0.11360E-03   -0.39075E-06  5050   0.472E-03    0.371E-02
RMM:  12    -0.372708923168E+03   -0.86568E-04   -0.26753E-06  5009   0.440E-03    0.128E-02
RMM:  13    -0.372708989752E+03   -0.66584E-04   -0.15132E-06  4929   0.290E-03    0.183E-02
RMM:  14    -0.372709263773E+03   -0.27402E-03   -0.57438E-06  5236   0.390E-03    0.253E-02
RMM:  15    -0.372709394710E+03   -0.13094E-03   -0.33741E-06  5123   0.379E-03    0.133E-02
RMM:  16    -0.372709571900E+03   -0.17719E-03   -0.51435E-06  5220   0.366E-03    0.231E-02
RMM:  17    -0.372709695447E+03   -0.12355E-03   -0.46512E-06  5206   0.363E-03    0.870E-03
RMM:  18    -0.372709717905E+03   -0.22458E-04   -0.82582E-07  4679   0.179E-03    0.838E-03
RMM:  19    -0.372709764124E+03   -0.46219E-04   -0.13119E-06  4588   0.162E-03    0.480E-03
RMM:  20    -0.372709775404E+03   -0.11280E-04   -0.29824E-07  3220   0.117E-03    0.323E-03
RMM:  21    -0.372709788088E+03   -0.12685E-04   -0.25666E-07  2428   0.104E-03    0.360E-03
RMM:  22    -0.372709792152E+03   -0.40633E-05   -0.97174E-08  1678   0.924E-04
   3 F= -.39092650E+03 E0= -.39088904E+03  d E =-.128519E-02  mag=    42.9972
       N       E                     dE             d eps       ncg     rms          rms(c)
DAV:   1    -0.372707323822E+03    0.24643E-02   -0.38184E-01  9264   0.945E-01    0.188E-01
RMM:   2    -0.372711300811E+03   -0.39770E-02   -0.13032E-02  9030   0.225E-01    0.100E+00
RMM:   3    -0.372710021577E+03    0.12792E-02   -0.14641E-03  8922   0.913E-02    0.885E-01
RMM:   4    -0.372708645753E+03    0.13758E-02   -0.81226E-04  8967   0.681E-02    0.444E-01
RMM:   5    -0.372708656312E+03   -0.10559E-04   -0.53860E-04  8904   0.565E-02    0.447E-01
RMM:   6    -0.372708142450E+03    0.51386E-03   -0.31001E-04  8822   0.448E-02    0.132E-01
RMM:   7    -0.372708184264E+03   -0.41814E-04   -0.13134E-04  8816   0.271E-02    0.208E-01
RMM:   8    -0.372708063250E+03    0.12101E-03   -0.12398E-04  8817   0.263E-02    0.196E-01
RMM:   9    -0.372707969434E+03    0.93816E-04   -0.10033E-04  8547   0.246E-02    0.151E-01
RMM:  10    -0.372707905645E+03    0.63789E-04   -0.72983E-05  8384   0.205E-02    0.139E-01
RMM:  11    -0.372707830113E+03    0.75532E-04   -0.41679E-05  7222   0.168E-02    0.455E-02
RMM:  12    -0.372707821998E+03    0.81146E-05   -0.10634E-05  4963   0.835E-03
   4 F= -.39092626E+03 E0= -.39088914E+03  d E =0.243321E-03  mag=    43.0162
       N       E                     dE             d eps       ncg     rms          rms(c)
DAV:   1    -0.372708704014E+03   -0.87390E-03   -0.17205E-01  9264   0.635E-01    0.130E-01
RMM:   2    -0.372711645925E+03   -0.29419E-02   -0.60469E-03  9013   0.155E-01    0.934E-01
RMM:   3    -0.372710053376E+03    0.15925E-02   -0.72300E-04  8922   0.645E-02    0.594E-01
RMM:   4    -0.372709356960E+03    0.69642E-03   -0.44744E-04  8938   0.512E-02    0.261E-01
RMM:   5    -0.372709562457E+03   -0.20550E-03   -0.28820E-04  8845   0.411E-02    0.330E-01
RMM:   6    -0.372709332315E+03    0.23014E-03   -0.18822E-04  8785   0.352E-02    0.107E-01
RMM:   7    -0.372709363300E+03   -0.30985E-04   -0.49002E-05  7474   0.169E-02    0.107E-01
RMM:   8    -0.372709486399E+03   -0.12310E-03   -0.70803E-05  8446   0.200E-02    0.153E-01
RMM:   9    -0.372709481911E+03    0.44880E-05   -0.60759E-05  7889   0.196E-02
   5 F= -.39092676E+03 E0= -.39088950E+03  d E =-.256296E-03  mag=    43.0164
