 vasp.5.4.4.18Apr17-6-g9f103f2a35 (build Dec 15 2018 21:27:11) complex          
  
 executed on             LinuxIFC date 2022.02.23  03:09:36
 running on   72 total cores
 distrk:  each k-point on   72 cores,    1 groups
 distr:  one band on NCORES_PER_BAND=  24 cores,    3 groups


--------------------------------------------------------------------------------------------------------


 INCAR:
 POTCAR:    PAW_PBE Ni 02Aug2007                  
 POTCAR:    PAW_PBE O 08Apr2002                   
 POTCAR:    PAW_PBE H 15Jun2001                   

 ----------------------------------------------------------------------------- 
|                                                                             |
|           W    W    AA    RRRRR   N    N  II  N    N   GGGG   !!!           |
|           W    W   A  A   R    R  NN   N  II  NN   N  G    G  !!!           |
|           W    W  A    A  R    R  N N  N  II  N N  N  G       !!!           |
|           W WW W  AAAAAA  RRRRR   N  N N  II  N  N N  G  GGG   !            |
|           WW  WW  A    A  R   R   N   NN  II  N   NN  G    G                |
|           W    W  A    A  R    R  N    N  II  N    N   GGGG   !!!           |
|                                                                             |
|      For optimal performance we recommend to set                            |
|        NCORE= 4 - approx SQRT( number of cores)                             |
|      NCORE specifies how many cores store one orbital (NPAR=cpu/NCORE).     |
|      This setting can  greatly improve the performance of VASP for DFT.     |
|      The default,   NCORE=1            might be grossly inefficient         |
|      on modern multi-core architectures or massively parallel machines.     |
|      Do your own testing !!!!                                               |
|      Unfortunately you need to use the default for GW and RPA calculations. |
|      (for HF NCORE is supported but not extensively tested yet)             |
|                                                                             |
 ----------------------------------------------------------------------------- 

 POTCAR:    PAW_PBE Ni 02Aug2007                  
   VRHFIN =Ni:                                                                  
   LEXCH  = PE                                                                  
   EATOM  =  1077.6739 eV,   79.2068 Ry                                         
                                                                                
   TITEL  = PAW_PBE Ni 02Aug2007                                                
   LULTRA =        F    use ultrasoft PP ?                                      
   IUNSCR =        1    unscreen: 0-lin 1-nonlin 2-no                           
   RPACOR =    2.000    partial core radius                                     
   POMASS =   58.690; ZVAL   =   10.000    mass and valenz                      
   RCORE  =    2.300    outmost cutoff radius                                   
   RWIGS  =    2.430; RWIGS  =    1.286    wigner-seitz radius (au A)           
   ENMAX  =  269.532; ENMIN  =  202.149 eV                                      
   RCLOC  =    1.201    cutoff for local pot                                    
   LCOR   =        T    correct aug charges                                     
   LPAW   =        T    paw PP                                                  
   EAUG   =  544.565                                                            
   DEXC   =    0.000                                                            
   RMAX   =    2.357    core radius for proj-oper                               
   RAUG   =    1.300    factor for augmentation sphere                          
   RDEP   =    2.390    radius for radial grids                                 
   RDEPT  =    1.838    core radius for aug-charge                              
                                                                                
   Atomic configuration                                                         
    9 entries                                                                   
     n  l   j            E        occ.                                          
     1  0  0.50     -8206.4253   2.0000                                         
     2  0  0.50      -976.1748   2.0000                                         
     2  1  1.50      -839.0571   6.0000                                         
     3  0  0.50      -105.9991   2.0000                                         
     3  1  1.50       -66.4603   6.0000                                         
     3  2  2.50        -4.6458   9.0000                                         
     4  0  0.50        -4.4926   1.0000                                         
     4  1  1.50        -4.0817   0.0000                                         
     4  3  2.50        -1.3606   0.0000                                         
   Description                                                                  
     l       E           TYP  RCUT    TYP  RCUT                                 
     2     -4.6457903     23  2.300                                             
     2     -6.0063729     23  2.300                                             
     0     -4.4925590     23  2.300                                             
     0      5.0102601     23  2.300                                             
     1     -2.7211652     23  2.300                                             
     1     16.5183231     23  2.300                                             
  local pseudopotential read in
  partial core-charges read in
  partial kinetic energy density read in
  atomic valenz-charges read in
  non local Contribution for L=           2  read in
    real space projection operators read in
  non local Contribution for L=           2  read in
    real space projection operators read in
  non local Contribution for L=           0  read in
    real space projection operators read in
  non local Contribution for L=           0  read in
    real space projection operators read in
  non local Contribution for L=           1  read in
    real space projection operators read in
  non local Contribution for L=           1  read in
    real space projection operators read in
    PAW grid and wavefunctions read in
 
   number of l-projection  operators is LMAX  =           6
   number of lm-projection operators is LMMAX =          18
 
 POTCAR:    PAW_PBE O 08Apr2002                   
   VRHFIN =O: s2p4                                                              
   LEXCH  = PE                                                                  
   EATOM  =   432.3788 eV,   31.7789 Ry                                         
                                                                                
   TITEL  = PAW_PBE O 08Apr2002                                                 
   LULTRA =        F    use ultrasoft PP ?                                      
   IUNSCR =        1    unscreen: 0-lin 1-nonlin 2-no                           
   RPACOR =    1.200    partial core radius                                     
   POMASS =   16.000; ZVAL   =    6.000    mass and valenz                      
   RCORE  =    1.520    outmost cutoff radius                                   
   RWIGS  =    1.550; RWIGS  =    0.820    wigner-seitz radius (au A)           
   ENMAX  =  400.000; ENMIN  =  300.000 eV                                      
   ICORE  =        2    local potential                                         
   LCOR   =        T    correct aug charges                                     
   LPAW   =        T    paw PP                                                  
   EAUG   =  605.392                                                            
   DEXC   =    0.000                                                            
   RMAX   =    1.553    core radius for proj-oper                               
   RAUG   =    1.300    factor for augmentation sphere                          
   RDEP   =    1.550    radius for radial grids                                 
   RDEPT  =    1.329    core radius for aug-charge                              
                                                                                
   Atomic configuration                                                         
    4 entries                                                                   
     n  l   j            E        occ.                                          
     1  0  0.50      -514.6923   2.0000                                         
     2  0  0.50       -23.9615   2.0000                                         
     2  1  0.50        -9.0305   4.0000                                         
     3  2  1.50        -9.5241   0.0000                                         
   Description                                                                  
     l       E           TYP  RCUT    TYP  RCUT                                 
     0    -23.9615318     23  1.200                                             
     0     -9.5240782     23  1.200                                             
     1     -9.0304911     23  1.520                                             
     1      8.1634956     23  1.520                                             
     2     -9.5240782      7  1.500                                             
  local pseudopotential read in
  partial core-charges read in
  partial kinetic energy density read in
  kinetic energy density of atom read in
  atomic valenz-charges read in
  non local Contribution for L=           0  read in
    real space projection operators read in
  non local Contribution for L=           0  read in
    real space projection operators read in
  non local Contribution for L=           1  read in
    real space projection operators read in
  non local Contribution for L=           1  read in
    real space projection operators read in
    PAW grid and wavefunctions read in
 
   number of l-projection  operators is LMAX  =           4
   number of lm-projection operators is LMMAX =           8
 
 POTCAR:    PAW_PBE H 15Jun2001                   
   VRHFIN =H: ultrasoft test                                                    
   LEXCH  = PE                                                                  
   EATOM  =    12.4884 eV,    0.9179 Ry                                         
                                                                                
   TITEL  = PAW_PBE H 15Jun2001                                                 
   LULTRA =        F    use ultrasoft PP ?                                      
   IUNSCR =        0    unscreen: 0-lin 1-nonlin 2-no                           
   RPACOR =    0.000    partial core radius                                     
   POMASS =    1.000; ZVAL   =    1.000    mass and valenz                      
   RCORE  =    1.100    outmost cutoff radius                                   
   RWIGS  =    0.700; RWIGS  =    0.370    wigner-seitz radius (au A)           
   ENMAX  =  250.000; ENMIN  =  200.000 eV                                      
   RCLOC  =    0.701    cutoff for local pot                                    
   LCOR   =        T    correct aug charges                                     
   LPAW   =        T    paw PP                                                  
   EAUG   =  400.000                                                            
   RMAX   =    1.123    core radius for proj-oper                               
   RAUG   =    1.200    factor for augmentation sphere                          
   RDEP   =    1.112    radius for radial grids                                 
   RDEPT  =    0.926    core radius for aug-charge                              
                                                                                
   Atomic configuration                                                         
    2 entries                                                                   
     n  l   j            E        occ.                                          
     1  0  0.50        -6.4927   1.0000                                         
     2  1  0.50        -3.4015   0.0000                                         
   Description                                                                  
     l       E           TYP  RCUT    TYP  RCUT                                 
     0     -6.4927494     23  1.100                                             
     0      6.8029130     23  1.100                                             
     1     -4.0817478     23  1.100                                             
  local pseudopotential read in
  atomic valenz-charges read in
  non local Contribution for L=           0  read in
    real space projection operators read in
  non local Contribution for L=           0  read in
    real space projection operators read in
  non local Contribution for L=           1  read in
    real space projection operators read in
    PAW grid and wavefunctions read in
 
   number of l-projection  operators is LMAX  =           3
   number of lm-projection operators is LMMAX =           5
 
 Optimization of the real space projectors (new method)

 maximal supplied QI-value         = 16.25
 optimisation between [QCUT,QGAM] = [ 11.54, 23.24] = [ 37.28,151.24] Ry 
 Optimized for a Real-space Cutoff    1.45 Angstroem

   l    n(q)    QCUT    max X(q) W(low)/X(q) W(high)/X(q)  e(spline) 
   2      9    11.539    60.317    0.19E-03    0.47E-04    0.16E-06
   2      9    11.539    55.921    0.19E-03    0.48E-04    0.16E-06
   0     10    11.539    51.690    0.80E-04    0.50E-04    0.24E-06
   0     10    11.539    30.015    0.73E-04    0.45E-04    0.22E-06
   1     10    11.539    18.849    0.87E-04    0.16E-03    0.71E-07
   1     10    11.539    14.624    0.73E-04    0.13E-03    0.64E-07
 Optimization of the real space projectors (new method)

 maximal supplied QI-value         = 24.76
 optimisation between [QCUT,QGAM] = [ 11.64, 23.27] = [ 37.91,151.63] Ry 
 Optimized for a Real-space Cutoff    1.14 Angstroem

   l    n(q)    QCUT    max X(q) W(low)/X(q) W(high)/X(q)  e(spline) 
   0      8    11.635    20.381    0.10E-03    0.33E-03    0.24E-06
   0      8    11.635    15.268    0.11E-03    0.35E-03    0.26E-06
   1      7    11.635     5.964    0.24E-03    0.31E-03    0.30E-06
   1      7    11.635     5.382    0.22E-03    0.25E-03    0.26E-06
 Optimization of the real space projectors (new method)

 maximal supplied QI-value         = 34.20
 optimisation between [QCUT,QGAM] = [ 11.63, 23.26] = [ 37.87,151.49] Ry 
 Optimized for a Real-space Cutoff    1.21 Angstroem

   l    n(q)    QCUT    max X(q) W(low)/X(q) W(high)/X(q)  e(spline) 
   0      8    11.629    19.460    0.17E-03    0.34E-03    0.21E-06
   0      8    11.629    12.209    0.16E-03    0.33E-03    0.21E-06
   1      8    11.629     4.655    0.18E-03    0.16E-03    0.26E-06
  PAW_PBE Ni 02Aug2007                  :
 energy of atom  1       EATOM=-1077.6739
 kinetic energy error for atom=    0.0030 (will be added to EATOM!!)
  PAW_PBE O 08Apr2002                   :
 energy of atom  2       EATOM= -432.3788
 kinetic energy error for atom=    0.0208 (will be added to EATOM!!)
  PAW_PBE H 15Jun2001                   :
 energy of atom  3       EATOM=  -12.4884
 kinetic energy error for atom=    0.0014 (will be added to EATOM!!)
 
 
 POSCAR: POSCAR                                  
  positions in direct lattice
  velocities in cartesian coordinates
 exchange correlation table for  LEXCH =        8
   RHO(1)=    0.500       N(1)  =     2000
   RHO(2)=  100.500       N(2)  =     4000

 VTST: version 3.2, (02/03/18)

 CHAIN: initializing optimizer
 
 OPT: Using VASP Conjugate-Gradient optimizer
 CHAIN: Read ICHAIN            0
 
 POSCAR: POSCAR                                  
  positions in direct lattice
  velocities in cartesian coordinates
 


--------------------------------------------------------------------------------------------------------


 ion  position               nearest neighbor table
   1  0.113  0.226  0.095-  15 2.49  19 2.49   3 2.49   5 2.49  13 2.49  17 2.49  21 2.49  49 2.49
                            61 2.49
   2  0.108  0.228  0.383-  65 1.82  14 2.40  18 2.43  20 2.45  62 2.48  22 2.51   6 2.52  24 2.52
                             4 2.53  50 2.57
   3  0.196  0.142  0.191-   4 2.44   8 2.45  24 2.46   5 2.49  49 2.49   1 2.49   7 2.49  15 2.49
                            19 2.49  23 2.49  51 2.49  63 2.49
   4  0.029  0.059  0.285-  62 2.43  15 2.44  63 2.44   3 2.44   8 2.49  24 2.49  64 2.49  16 2.49
                            20 2.49  52 2.50  50 2.52   2 2.53
   5  0.363  0.226  0.095-   3 2.49  23 2.49   7 2.49   9 2.49   1 2.49  21 2.49  25 2.49  49 2.49
                            53 2.49
   6  0.359  0.224  0.387-  65 1.86  69 1.96  50 2.52   2 2.52  22 2.52  54 2.52  10 2.53  26 2.55
                            24 2.56   8 2.56  28 2.57
   7  0.446  0.142  0.191-  12 2.45   8 2.46  28 2.49   9 2.49  53 2.49   5 2.49  11 2.49   3 2.49
                            23 2.49  51 2.49  27 2.49  55 2.49
   8  0.280  0.060  0.286-  54 2.41   3 2.45   7 2.46  51 2.46  24 2.47  28 2.49   4 2.49  52 2.50
                            12 2.50  56 2.51  50 2.52   6 2.56
   9  0.613  0.226  0.095-   7 2.49  27 2.49  11 2.49  13 2.49   5 2.49  25 2.49  29 2.49  53 2.49
                            57 2.49
  10  0.613  0.225  0.383-  68 1.89  69 1.93  28 2.49  12 2.51  32 2.51  54 2.52  30 2.52  58 2.52
                            14 2.52   6 2.53  26 2.53
  11  0.696  0.142  0.191-  16 2.45  12 2.45  32 2.45  13 2.49  57 2.49   9 2.49  15 2.49   7 2.49
                            27 2.49  55 2.49  31 2.49  59 2.49
  12  0.530  0.060  0.285-  54 2.42  11 2.45   7 2.45  55 2.46  32 2.47  16 2.49  60 2.49  28 2.50
                             8 2.50  56 2.50  10 2.51  58 2.53
  13  0.863  0.226  0.095-  11 2.49  31 2.49  15 2.49   9 2.49   1 2.49  29 2.49  17 2.49  57 2.49
                            61 2.49
  14  0.868  0.228  0.383-  68 1.84   2 2.40  18 2.44  20 2.46  62 2.49  30 2.50  10 2.52  16 2.53
                            32 2.53  58 2.56
  15  0.946  0.142  0.191-   4 2.44  16 2.45  20 2.48   1 2.49  61 2.49  13 2.49   3 2.49  11 2.49
                            31 2.49  59 2.49  19 2.49  63 2.49
  16  0.779  0.059  0.285-  62 2.42  11 2.45  15 2.45  59 2.45  32 2.49  12 2.49  60 2.49  20 2.49
                             4 2.49  64 2.49  14 2.53  58 2.53
  17  0.113  0.476  0.095-  31 2.49  35 2.49  19 2.49  21 2.49  29 2.49  13 2.49  33 2.49   1 2.49
                            37 2.49
  18  0.111  0.473  0.383-  67 1.84   2 2.43  14 2.44  30 2.47  20 2.47  22 2.48  36 2.53  40 2.53
                            34 2.53  38 2.54
  19  0.196  0.392  0.191-  40 2.44  24 2.47  20 2.48  21 2.49   1 2.49  17 2.49  31 2.49  23 2.49
                            15 2.49  35 2.49  39 2.49   3 2.49
  20  0.029  0.309  0.287-   2 2.45  14 2.46  18 2.47  31 2.47  15 2.48  19 2.48  36 2.49  16 2.49
                            40 2.49  32 2.49   4 2.49  24 2.50
  21  0.363  0.476  0.095-  19 2.49  39 2.49  23 2.49  25 2.49  17 2.49   5 2.49  37 2.49   1 2.49
                            41 2.49
  22  0.362  0.477  0.377-  40 2.41  44 2.41  24 2.41  18 2.48  38 2.48   2 2.51  42 2.51   6 2.52
                            26 2.52
  23  0.446  0.392  0.191-  24 2.46  44 2.46  28 2.48  25 2.49   5 2.49  21 2.49  19 2.49  27 2.49
                             7 2.49  39 2.49  43 2.49   3 2.49
  24  0.280  0.308  0.286-  22 2.41   3 2.46  23 2.46  19 2.47   8 2.47  28 2.48   4 2.49  44 2.50
                            20 2.50  40 2.50   2 2.52   6 2.56
  25  0.613  0.476  0.095-  23 2.49  43 2.49  27 2.49  29 2.49  21 2.49   9 2.49  41 2.49   5 2.49
                            45 2.49
  26  0.615  0.480  0.387-  66 1.86  69 1.96  46 2.52  42 2.52  22 2.52  30 2.52  10 2.53   6 2.55
                            44 2.56  48 2.56  28 2.57
  27  0.696  0.392  0.191-  32 2.45  48 2.46  28 2.49  29 2.49   9 2.49  25 2.49  23 2.49  31 2.49
                            11 2.49  43 2.49  47 2.49   7 2.49
  28  0.529  0.310  0.287-  44 2.48  24 2.48  23 2.48  48 2.49   8 2.49  27 2.49   7 2.49  10 2.49
                            32 2.50  12 2.50   6 2.57  26 2.57
  29  0.863  0.476  0.095-  27 2.49  47 2.49  31 2.49  25 2.49  17 2.49  13 2.49  33 2.49  45 2.49
                             9 2.49
  30  0.866  0.477  0.376-  36 2.40  48 2.41  32 2.42  18 2.47  34 2.47  14 2.50  46 2.51  10 2.52
                            26 2.52
  31  0.946  0.392  0.191-  36 2.44  32 2.46  20 2.47  17 2.49  13 2.49  29 2.49  27 2.49  19 2.49
                            15 2.49  35 2.49  11 2.49  47 2.49
  32  0.779  0.308  0.285-  30 2.42  11 2.45  27 2.45  31 2.46  12 2.47  16 2.49  20 2.49  28 2.50
                            48 2.50  36 2.50  10 2.51  14 2.53
  33  0.113  0.726  0.095-  47 2.49  51 2.49  35 2.49  37 2.49  45 2.49  29 2.49  49 2.49  17 2.49
                            53 2.49
  34  0.111  0.727  0.383-  67 1.84  46 2.43  50 2.43  54 2.47  30 2.47  52 2.47  56 2.53  36 2.53
                            18 2.53  38 2.53
  35  0.196  0.642  0.191-  36 2.44  56 2.44  40 2.44  37 2.49  17 2.49  33 2.49  47 2.49  39 2.49
                            31 2.49  51 2.49  55 2.49  19 2.49
  36  0.030  0.559  0.285-  30 2.40  35 2.44  31 2.44  47 2.44  20 2.49  56 2.49  52 2.49  40 2.49
                            32 2.50  48 2.51  34 2.53  18 2.53
  37  0.363  0.726  0.095-  35 2.49  55 2.49  39 2.49  41 2.49  33 2.49  21 2.49  53 2.49  17 2.49
                            57 2.49
  38  0.366  0.727  0.383-  67 1.84  42 2.43  58 2.44  54 2.47  60 2.47  22 2.48  56 2.53  40 2.53
                            34 2.53  18 2.54
  39  0.446  0.642  0.191-  40 2.44  44 2.47  60 2.48  41 2.49  21 2.49  37 2.49  35 2.49  43 2.49
                            23 2.49  55 2.49  59 2.49  19 2.49
  40  0.279  0.559  0.285-  22 2.41  35 2.44  39 2.44  19 2.44  36 2.49  56 2.49  20 2.49  60 2.49
                            44 2.50  24 2.50  18 2.53  38 2.53
  41  0.613  0.726  0.095-  39 2.49  59 2.49  43 2.49  45 2.49  37 2.49  25 2.49  57 2.49  21 2.49
                            61 2.49
  42  0.611  0.730  0.383-  66 1.82  58 2.40  38 2.43  60 2.45  62 2.48  22 2.51  26 2.52  44 2.52
                            64 2.53  46 2.57
  43  0.696  0.642  0.191-  64 2.44  48 2.45  44 2.46  45 2.49  25 2.49  41 2.49  39 2.49  47 2.49
                            27 2.49  59 2.49  63 2.49  23 2.49
  44  0.530  0.559  0.286-  22 2.41  43 2.46  23 2.46  39 2.47  48 2.47  28 2.48  64 2.49  24 2.50
                            60 2.50  40 2.50  42 2.52  26 2.56
  45  0.863  0.726  0.095-  43 2.49  63 2.49  47 2.49  41 2.49  33 2.49  29 2.49  49 2.49  61 2.49
                            25 2.49
  46  0.869  0.730  0.382-  66 1.82  50 2.39  34 2.43  52 2.46  62 2.49  30 2.51  26 2.52  48 2.52
                            64 2.52  42 2.57
  47  0.946  0.642  0.191-  36 2.44  48 2.46  52 2.47  33 2.49  29 2.49  45 2.49  43 2.49  35 2.49
                            31 2.49  51 2.49  27 2.49  63 2.49
  48  0.778  0.559  0.286-  30 2.41  43 2.45  27 2.46  47 2.46  44 2.47  28 2.49  64 2.49  52 2.50
                            32 2.50  36 2.51  46 2.52  26 2.56
  49  0.113  0.976  0.095-  63 2.49   3 2.49  51 2.49  61 2.49  53 2.49   1 2.49   5 2.49  33 2.49
                            45 2.49
  50  0.109  0.970  0.382-  65 1.82  46 2.39  34 2.43  52 2.46  62 2.49  54 2.51   6 2.52   8 2.52
                             4 2.52   2 2.57
  51  0.196  0.892  0.191-  56 2.44   8 2.46  52 2.47  53 2.49  33 2.49  49 2.49  55 2.49  63 2.49
                            35 2.49  47 2.49   3 2.49   7 2.49
  52  0.030  0.809  0.286-  46 2.46  50 2.46  51 2.47  47 2.47  63 2.47  34 2.47  56 2.49  36 2.49
                             4 2.50  64 2.50  48 2.50   8 2.50
  53  0.363  0.976  0.095-  51 2.49   7 2.49  55 2.49  49 2.49  57 2.49   5 2.49   9 2.49  33 2.49
                            37 2.49
  54  0.361  0.973  0.376-  56 2.40   8 2.41  12 2.42  38 2.47  34 2.47  58 2.50  50 2.51  10 2.52
                             6 2.52
  55  0.446  0.892  0.191-  56 2.44  12 2.46  60 2.47  57 2.49  37 2.49  53 2.49  59 2.49  51 2.49
                            11 2.49  39 2.49   7 2.49  35 2.49
  56  0.279  0.809  0.285-  54 2.40  35 2.44  55 2.44  51 2.44  36 2.49  60 2.49  52 2.49  40 2.49
                            12 2.50   8 2.51  34 2.53  38 2.53
  57  0.613  0.976  0.095-  55 2.49  11 2.49  59 2.49  53 2.49  61 2.49   9 2.49  13 2.49  37 2.49
                            41 2.49
  58  0.611  0.971  0.383-  68 1.84  42 2.40  38 2.44  60 2.46  62 2.49  54 2.50  10 2.52  16 2.53
                            12 2.53  14 2.56
  59  0.696  0.892  0.191-  64 2.44  16 2.45  60 2.48  61 2.49  41 2.49  57 2.49  63 2.49  55 2.49
                            15 2.49  43 2.49  11 2.49  39 2.49
  60  0.529  0.809  0.287-  42 2.45  58 2.46  38 2.47  55 2.47  59 2.48  39 2.48  56 2.49  16 2.49
                            40 2.49  12 2.49  64 2.49  44 2.50
  61  0.863  0.976  0.095-  59 2.49  15 2.49  63 2.49  49 2.49  57 2.49  13 2.49   1 2.49  41 2.49
                            45 2.49
  62  0.862  0.976  0.377-  16 2.42   4 2.43  64 2.43  42 2.48   2 2.48  58 2.49  14 2.49  46 2.49
                            50 2.49
  63  0.946  0.892  0.191-  64 2.44   4 2.44  52 2.47  49 2.49  45 2.49  61 2.49  51 2.49  59 2.49
                             3 2.49  47 2.49  15 2.49  43 2.49
  64  0.779  0.809  0.285-  62 2.43  59 2.44  63 2.44  43 2.44  48 2.49  44 2.49   4 2.49  16 2.49
                            60 2.49  52 2.50  46 2.52  42 2.53
  65  0.180  0.134  0.436-   2 1.82  50 1.82   6 1.86
  66  0.704  0.658  0.436-  42 1.82  46 1.82  26 1.86
  67  0.196  0.642  0.435-  38 1.84  18 1.84  34 1.84
  68  0.701  0.138  0.437-  14 1.84  58 1.84  10 1.89
  69  0.533  0.305  0.447-  70 1.52  10 1.93   6 1.96  26 1.96
  70  0.553  0.285  0.517-  71 0.99  69 1.52
  71  0.611  0.229  0.512-  70 0.99
 

IMPORTANT INFORMATION: All symmetrisations will be switched off!
NOSYMM: (Re-)initialisation of all symmetry stuff for point group C_1.

 
 

Automatic generation of k-mesh.
 generate k-points for:    3    3    1
Space group operators:
 irot       det(A)        alpha          n_x          n_y          n_z        tau_x        tau_y        tau_z
    1     1.000000     0.000000     1.000000     0.000000     0.000000     0.000000     0.000000     0.000000
 
 Subroutine IBZKPT returns following result:
 ===========================================
 
 Found      5 irreducible k-points:
 
 Following reciprocal coordinates:
            Coordinates               Weight
  0.000000  0.000000  0.000000      1.000000
  0.333333  0.000000  0.000000      2.000000
  0.000000  0.333333  0.000000      2.000000
  0.333333  0.333333  0.000000      2.000000
 -0.333333  0.333333  0.000000      2.000000
 
 Following cartesian coordinates:
            Coordinates               Weight
  0.000000  0.000000  0.000000      1.000000
  0.033442  0.019308  0.000000      2.000000
  0.000000  0.038616  0.000000      2.000000
  0.033442  0.057924  0.000000      2.000000
 -0.033442  0.019308  0.000000      2.000000
 


--------------------------------------------------------------------------------------------------------




 Dimension of arrays:
   k-points           NKPTS =      5   k-points in BZ     NKDIM =      5   number of bands    NBANDS=    444
   number of dos      NEDOS =    301   number of ions     NIONS =     71
   non local maximal  LDIM  =      6   non local SUM 2l+1 LMDIM =     18
   total plane-waves  NPLWV = ******
   max r-space proj   IRMAX =   7188   max aug-charges    IRDMAX=  18478
   dimension x,y,z NGX =    80 NGY =   80 NGZ =  160
   dimension x,y,z NGXF=   160 NGYF=  160 NGZF=  320
   support grid    NGXF=   160 NGYF=  160 NGZF=  320
   ions per type =              64   6   1
   NGX,Y,Z   is equivalent  to a cutoff of  13.34, 13.34, 12.60 a.u.
   NGXF,Y,Z  is equivalent  to a cutoff of  26.69, 26.69, 25.21 a.u.

 SYSTEM =  SQS-NiFe                                
 POSCAR =  POSCAR                                  

 Startparameter for this run:
   NWRITE =      2    write-flag & timer
   PREC   = accura    normal or accurate (medium, high low for compatibility)
   ISTART =      1    job   : 0-new  1-cont  2-samecut
   ICHARG =      1    charge: 1-file 2-atom 10-const
   ISPIN  =      2    spin polarized calculation?
   LNONCOLLINEAR =      F non collinear calculations
   LSORBIT =      F    spin-orbit coupling
   INIWAV =      1    electr: 0-lowe 1-rand  2-diag
   LASPH  =      F    aspherical Exc in radial PAW
   METAGGA=      F    non-selfconsistent MetaGGA calc.

 Electronic Relaxation 1
   ENCUT  =  520.0 eV  38.22 Ry    6.18 a.u.  18.53 18.53 39.24*2*pi/ulx,y,z
   ENINI  =  520.0     initial cutoff
   ENAUG  =  605.4 eV  augmentation charge cutoff
   NELM   =    200;   NELMIN=  2; NELMDL=  0     # of ELM steps 
   EDIFF  = 0.1E-04   stopping-criterion for ELM
   LREAL  =      T    real-space projection
   NLSPLINE    = F    spline interpolate recip. space projectors
   LCOMPAT=      F    compatible to vasp.4.4
   GGA_COMPAT  = T    GGA compatible to vasp.4.4-vasp.4.6
   LMAXPAW     = -100 max onsite density
   LMAXMIX     =    2 max onsite mixed and CHGCAR
   VOSKOWN=      0    Vosko Wilk Nusair interpolation
   ROPT   =   -0.00025  -0.00025  -0.00025
 Ionic relaxation
   EDIFFG = -.5E-01   stopping-criterion for IOM
   NSW    =     50    number of steps for IOM
   NBLOCK =      1;   KBLOCK =     50    inner block; outer block 
   IBRION =      2    ionic relax: 0-MD 1-quasi-New 2-CG
   NFREE  =      1    steps in history (QN), initial steepest desc. (CG)
   ISIF   =      2    stress and relaxation
   IWAVPR =     11    prediction:  0-non 1-charg 2-wave 3-comb
   ISYM   =      0    0-nonsym 1-usesym 2-fastsym
   LCORR  =      T    Harris-Foulkes like correction to forces

   POTIM  = 0.5000    time-step for ionic-motion
   TEIN   =    0.0    initial temperature
   TEBEG  =    0.0;   TEEND  =   0.0 temperature during run
   SMASS  =  -3.00    Nose mass-parameter (am)
   estimated Nose-frequenzy (Omega)   =  0.10E-29 period in steps =****** mass=  -0.227E-26a.u.
   SCALEE = 1.0000    scale energy and forces
   NPACO  =    256;   APACO  = 16.0  distance and # of slots for P.C.
   PSTRESS=    0.0 pullay stress

  Mass of Ions in am
   POMASS =  58.69 16.00  1.00
  Ionic Valenz
   ZVAL   =  10.00  6.00  1.00
  Atomic Wigner-Seitz radii
   RWIGS  =  -1.00 -1.00 -1.00
  virtual crystal weights 
   VCA    =   1.00  1.00  1.00
   NELECT =     677.0000    total number of electrons
   NUPDOWN=      -1.0000    fix difference up-down

 DOS related values:
   EMIN   =  10.00;   EMAX   =-10.00  energy-range for DOS
   EFERMI =   0.00
   ISMEAR =     1;   SIGMA  =   0.20  broadening in eV -4-tet -1-fermi 0-gaus

 Electronic relaxation 2 (details)
   IALGO  =     68    algorithm
   LDIAG  =      T    sub-space diagonalisation (order eigenvalues)
   LSUBROT=      F    optimize rotation matrix (better conditioning)
   TURBO    =      0    0=normal 1=particle mesh
   IRESTART =      0    0=no restart 2=restart with 2 vectors
   NREBOOT  =      0    no. of reboots
   NMIN     =      0    reboot dimension
   EREF     =   0.00    reference energy to select bands
   IMIX   =      4    mixing-type and parameters
     AMIX     =   0.40;   BMIX     =  1.00
     AMIX_MAG =   1.60;   BMIX_MAG =  1.00
     AMIN     =   0.10
     WC   =   100.;   INIMIX=   1;  MIXPRE=   1;  MAXMIX= -45

 Intra band minimization:
   WEIMIN = 0.0010     energy-eigenvalue tresh-hold
   EBREAK =  0.56E-08  absolut break condition
   DEPER  =   0.30     relativ break condition  

   TIME   =   0.40     timestep for ELM

  volume/ion in A,a.u.               =      25.57       172.58
  Fermi-wavevector in a.u.,A,eV,Ry     =   1.178294  2.226653 18.890009  1.388376
  Thomas-Fermi vector in A             =   2.314625
 
 Write flags
   LWAVE        =      T    write WAVECAR
   LDOWNSAMPLE  =      F    k-point downsampling of WAVECAR
   LCHARG       =      T    write CHGCAR
   LVTOT        =      F    write LOCPOT, total local potential
   LVHAR        =      F    write LOCPOT, Hartree potential only
   LELF         =      F    write electronic localiz. function (ELF)
   LORBIT       =     10    0 simple, 1 ext, 2 COOP (PROOUT), +10 PAW based schemes


 Dipole corrections
   LMONO  =      F    monopole corrections only (constant potential shift)
   LDIPOL =      T    correct potential (dipole corrections)
   IDIPOL =      3    1-x, 2-y, 3-z, 4-all directions 
   EPSILON=  1.0000000 bulk dielectric constant

 Exchange correlation treatment:
   GGA     =    --    GGA type
   LEXCH   =     8    internal setting for exchange type
   VOSKOWN=      0    Vosko Wilk Nusair interpolation
   LHFCALC =     F    Hartree Fock is set to
   LHFONE  =     F    Hartree Fock one center treatment
   AEXX    =    0.0000 exact exchange contribution

 Linear response parameters
   LEPSILON=     F    determine dielectric tensor
   LRPA    =     F    only Hartree local field effects (RPA)
   LNABLA  =     F    use nabla operator in PAW spheres
   LVEL    =     F    velocity operator in full k-point grid
   LINTERFAST=   F  fast interpolation
   KINTER  =     0    interpolate to denser k-point grid
   CSHIFT  =0.1000    complex shift for real part using Kramers Kronig
   OMEGAMAX=  -1.0    maximum frequency
   DEG_THRESHOLD= 0.2000000E-02 threshold for treating states as degnerate
   RTIME   =   -0.100 relaxation time in fs
  (WPLASMAI=    0.000 imaginary part of plasma frequency in eV, 0.658/RTIME)
   DFIELD  = 0.0000000 0.0000000 0.0000000 field for delta impulse in time
 
 Orbital magnetization related:
   ORBITALMAG=     F  switch on orbital magnetization
   LCHIMAG   =     F  perturbation theory with respect to B field
   DQ        =  0.001000  dq finite difference perturbation B field
   LLRAUG    =     F  two centre corrections for induced B field



--------------------------------------------------------------------------------------------------------


 conjugate gradient relaxation of ions
   using selective dynamics as specified on POSCAR
 charge density and potential will be updated during run
 spin polarized calculation
 RMM-DIIS sequential band-by-band and
  variant of blocked Davidson during initial phase
 perform sub-space diagonalisation
    before iterative eigenvector-optimisation
 modified Broyden-mixing scheme, WC =      100.0
 initial mixing is a Kerker type mixing with AMIX =  0.4000 and BMIX =      1.0000
 Hartree-type preconditioning will be used
 using additional bands          105
 real space projection scheme for non local part
 use partial core corrections
 calculate Harris-corrections to forces 
   (improved forces if not selfconsistent)
 use gradient corrections 
 use of overlap-Matrix (Vanderbilt PP)
 Methfessel and Paxton  Order N= 1 SIGMA  =   0.20


--------------------------------------------------------------------------------------------------------


  energy-cutoff  :      520.00
  volume of cell :     1815.73
      direct lattice vectors                 reciprocal lattice vectors
     9.967380000  0.000000000  0.000000000     0.100327268  0.057923975  0.000000000
    -4.983690000  8.632004290  0.000000000     0.000000000  0.115847950  0.000000000
     0.000000000  0.000000000 21.103750000     0.000000000  0.000000000  0.047384943

  length of vectors
     9.967380000  9.967380001 21.103750000     0.115847950  0.115847950  0.047384943


 
 old parameters found on file WAVECAR:
  energy-cutoff  :      520.00
  volume of cell :     1815.73
      direct lattice vectors                 reciprocal lattice vectors
     9.967380000  0.000000000  0.000000000     0.100327268  0.057923975  0.000000000
    -4.983690000  8.632004290  0.000000000     0.000000000  0.115847950  0.000000000
     0.000000000  0.000000000 21.103750000     0.000000000  0.000000000  0.047384943

  length of vectors

 
 k-points in units of 2pi/SCALE and weight: read from INCAR                         
   0.00000000  0.00000000  0.00000000       0.111
   0.03344242  0.01930799  0.00000000       0.222
   0.00000000  0.03861598  0.00000000       0.222
   0.03344242  0.05792397  0.00000000       0.222
  -0.03344242  0.01930799  0.00000000       0.222
 
 k-points in reciprocal lattice and weights: read from INCAR                         
   0.00000000  0.00000000  0.00000000       0.111
   0.33333333  0.00000000  0.00000000       0.222
   0.00000000  0.33333333  0.00000000       0.222
   0.33333333  0.33333333  0.00000000       0.222
  -0.33333333  0.33333333  0.00000000       0.222
 
 position of ions in fractional coordinates (direct lattice) 
   0.11283300  0.22566700  0.09477000
   0.10838620  0.22761046  0.38255953
   0.19616700  0.14233300  0.19117800
   0.02942713  0.05903642  0.28479952
   0.36283300  0.22566700  0.09477000
   0.35882167  0.22363862  0.38696659
   0.44616700  0.14233300  0.19117800
   0.27955673  0.06019954  0.28564471
   0.61283300  0.22566700  0.09477000
   0.61334159  0.22517104  0.38297786
   0.69616700  0.14233300  0.19117800
   0.53025881  0.05995241  0.28521464
   0.86283300  0.22566700  0.09477000
   0.86759088  0.22781710  0.38286399
   0.94616700  0.14233300  0.19117800
   0.77930357  0.05921004  0.28498079
   0.11283300  0.47566700  0.09477000
   0.11122823  0.47281972  0.38277175
   0.19616700  0.39233300  0.19117800
   0.02925651  0.30921493  0.28660669
   0.36283300  0.47566700  0.09477000
   0.36151184  0.47700982  0.37688541
   0.44616700  0.39233300  0.19117800
   0.27963526  0.30802239  0.28589174
   0.61283300  0.47566700  0.09477000
   0.61489300  0.47971877  0.38697814
   0.69616700  0.39233300  0.19117800
   0.52890508  0.30962003  0.28716186
   0.86283300  0.47566700  0.09477000
   0.86583678  0.47730496  0.37642759
   0.94616700  0.39233300  0.19117800
   0.77856025  0.30824882  0.28521430
   0.11283300  0.72566700  0.09477000
   0.11146836  0.72705252  0.38266406
   0.19616700  0.64233300  0.19117800
   0.02970572  0.55910198  0.28454386
   0.36283300  0.72566700  0.09477000
   0.36571143  0.72730455  0.38276892
   0.44616700  0.64233300  0.19117800
   0.27943834  0.55906940  0.28461484
   0.61283300  0.72566700  0.09477000
   0.61090707  0.73015433  0.38255817
   0.69616700  0.64233300  0.19117800
   0.53048257  0.55887216  0.28589447
   0.86283300  0.72566700  0.09477000
   0.86893003  0.72995562  0.38240027
   0.94616700  0.64233300  0.19117800
   0.77831254  0.55895353  0.28564596
   0.11283300  0.97566700  0.09477000
   0.10857538  0.96960295  0.38240510
   0.19616700  0.89233300  0.19117800
   0.02971496  0.80879539  0.28636236
   0.36283300  0.97566700  0.09477000
   0.36121218  0.97268349  0.37643223
   0.44616700  0.89233300  0.19117800
   0.27940598  0.80880691  0.28454405
   0.61283300  0.97566700  0.09477000
   0.61071095  0.97093814  0.38286876
   0.69616700  0.89233300  0.19117800
   0.52929752  0.80926082  0.28660624
   0.86283300  0.97566700  0.09477000
   0.86244406  0.97607641  0.37747741
   0.94616700  0.89233300  0.19117800
   0.77946726  0.80907905  0.28479848
   0.18023601  0.13444969  0.43600692
   0.70409524  0.65833801  0.43599820
   0.19622941  0.64234397  0.43541694
   0.70066208  0.13788371  0.43668705
   0.53300267  0.30545974  0.44653566
   0.55290427  0.28506774  0.51661077
   0.61071797  0.22886435  0.51249954
 
 position of ions in cartesian coordinates  (Angst):
  -0.00000498  1.94795851  2.00000239
  -0.05401358  1.96473447  8.07344068
   1.24592748  1.22861907  4.03457272
  -0.00090786  0.50960266  6.01033782
   2.49184002  1.94795851  2.00000239
   2.46196644  1.93044949  8.16644611
   3.73777248  1.22861907  4.03457272
   2.48643232  0.51964272  6.02817455
   4.98368502  1.94795851  2.00000239
   4.99122598  1.94367742  8.08226903
   6.22961748  1.22861907  4.03457272
   4.98650681  0.51750943  6.01909852
   7.47553002  1.94795851  2.00000239
   7.51223815  1.96651822  8.07986590
   8.72146248  1.22861907  4.03457272
   7.47253028  0.51110134  6.01416333
  -1.24592748  4.10595958  2.00000239
  -1.24773287  4.08138187  8.07791941
   0.00000498  3.38662014  4.03457272
  -1.24942062  2.66914463  6.04847590
   1.24591752  4.10595958  2.00000239
   1.22605684  4.11755082  7.95369543
   2.49184998  3.38662014  4.03457272
   1.25214281  2.65885060  6.03338791
   3.73776252  4.10595958  2.00000239
   3.73810254  4.14093446  8.16668990
   4.98369498  3.38662014  4.03457272
   3.72874768  2.67264145  6.06019214
   6.22960752  4.10595958  2.00000239
   6.25138424  4.12009844  7.94403371
   7.47553998  3.38662014  4.03457272
   6.22398927  2.66080514  6.01909137
  -2.49184998  6.26396066  2.00000239
  -2.51235687  6.27592047  8.07564659
  -1.24591752  5.54462121  4.03457272
  -2.49030270  4.82617066  6.00494240
  -0.00000498  6.26396066  2.00000239
   0.02052440  6.27809595  8.07785960
   1.24592748  5.54462121  4.03457272
  -0.00096047  4.82588945  6.00644044
   2.49184002  6.26396066  2.00000239
   2.45028012  6.30269530  8.07341208
   3.73777248  5.54462121  4.03457272
   2.50227575  4.82418684  6.03344536
   4.98368502  6.26396066  2.00000239
   5.02308332  6.30098006  8.07007970
   6.22961748  5.54462121  4.03457272
   4.97208574  4.82488926  6.02820100
  -3.73777248  8.42196173  2.00000239
  -3.74998845  8.36961681  8.07018161
  -2.49184002  7.70262228  4.03457272
  -3.73460517  6.98152524  6.04331959
  -1.24592748  8.42196173  2.00000239
  -1.24721390  8.39620806  7.94413168
   0.00000498  7.70262228  4.03457272
  -1.24589729  6.98162470  6.00494648
   1.24591752  8.42196173  2.00000239
   1.24833339  8.38114221  8.07996658
   2.49184998  7.70262228  4.03457272
   1.24260450  6.98554288  6.04846645
   3.73776252  8.42196173  2.00000239
   3.73184540  8.42549577  7.96618892
   4.98369498  7.70262228  4.03457272
   3.73704723  6.98397385  6.01031599
   1.12642522  1.16057030  9.20138107
   3.73703227  5.68277654  9.20119700
  -1.24535010  5.54471594  9.18893017
   6.29659555  1.19021278  9.21573426
   3.79032353  2.63672979  9.42357697
   4.09031772  2.46070597 10.90242452
   4.94666916  1.97555803 10.81566210
 


--------------------------------------------------------------------------------------------------------


 k-point  1 :   0.0000 0.0000 0.0000  plane waves:   48949
 k-point  2 :   0.3333 0.0000 0.0000  plane waves:   48884
 k-point  3 :   0.0000 0.3333 0.0000  plane waves:   48884
 k-point  4 :   0.3333 0.3333 0.0000  plane waves:   48804
 k-point  5 :  -0.3333 0.3333 0.0000  plane waves:   48884

 maximum and minimum number of plane-waves per node :      2058     2018

 maximum number of plane-waves:     48949
 maximum index in each direction: 
   IXMAX=   18   IYMAX=   18   IZMAX=   39
   IXMIN=  -18   IYMIN=  -18   IZMIN=  -39


 real space projection operators:
  total allocation   :      63679.91 KBytes
  max/ min on nodes  :       3224.46       2346.12


 parallel 3D FFT for wavefunctions:
    minimum data exchange during FFTs selected (reduces bandwidth)
 parallel 3D FFT for charge:
    minimum data exchange during FFTs selected (reduces bandwidth)


 total amount of memory used by VASP MPI-rank0   116832. kBytes
=======================================================================

   base      :      30000. kBytes
   nonlr-proj:      12633. kBytes
   fftplans  :       6402. kBytes
   grid      :      17692. kBytes
   one-center:         93. kBytes
   wavefun   :      50012. kBytes
 
     INWAV:  cpu time   11.5221: real time   11.9330
 Broyden mixing: mesh for mixing (old mesh)
   NGX = 37   NGY = 37   NGZ = 79
  (NGX  =160   NGY  =160   NGZ  =320)
  gives a total of 108151 points

 initial charge density was supplied:
 number of electron     677.0000079 magnetization      43.5837945
 keeping initial charge density in first step


--------------------------------------------------------------------------------------------------------


 Maximum index for non-local projection operator          709
 Maximum index for augmentation-charges         1178 (set IRDMAX)


--------------------------------------------------------------------------------------------------------


 First call to EWALD:  gamma=   0.145
 Maximum number of real-space cells 4x 4x 2
 Maximum number of reciprocal cells 2x 2x 4

    FEWALD:  cpu time    0.0035: real time    0.0035


--------------------------------------- Iteration      1(   1)  ---------------------------------------


    POTLOK:  cpu time    0.4324: real time    0.4391
    SETDIJ:  cpu time    0.0245: real time    0.0245
     EDDAV:  cpu time   48.5284: real time   48.5888
       DOS:  cpu time    0.0100: real time    0.0100
    CHARGE:  cpu time    1.3675: real time    1.3678
    MIXING:  cpu time    0.0067: real time    0.0067
    --------------------------------------------
      LOOP:  cpu time   50.3697: real time   50.4371

 eigenvalue-minimisations  :  9720
 total energy-change (2. order) :-0.3583982E+03  (-0.1588221E+03)
 number of electron     677.0000079 magnetization      43.3344030
 augmentation part      400.4384152 magnetization      40.7754182

 DIPCOR: dipole corrections for dipol
 direction  3 min pos   244,
 dipolmoment           0.000000      0.000000      0.342197 electrons x Angstroem
 Tr[quadrupol]    -11196.560666

 energy correction for charged system         0.000000 eV
 dipol+quadrupol energy correction           -0.005835 eV
 added-field ion interaction          4.551444 eV  (added to PSCEN)


 Broyden mixing:
  rms(total) = 0.70237E+00    rms(broyden)= 0.70231E+00
  rms(prec ) = 0.72168E+00
  weight for this iteration     100.00

 Free energy of the ion-electron system (eV)
  ---------------------------------------------------
  alpha Z        PSCENC =      1274.23771264
  Ewald energy   TEWEN  =    246789.30359990
  -Hartree energ DENC   =   -316336.85536010
  -exchange      EXHF   =         0.00000000
  -V(xc)+E(xc)   XCENC  =      2129.48732862
  PAW double counting   =     75309.96244069   -79709.42180190
  entropy T*S    EENTRO =        -0.10653545
  eigenvalues    EBANDS =     -1392.57931710
  atomic energy  EATOM  =     71577.57373177
  Solvation  Ediel_sol  =         0.00000000
  ---------------------------------------------------
  free energy    TOTEN  =      -358.39820093 eV

  energy without entropy =     -358.29166548  energy(sigma->0) =     -358.36268911


--------------------------------------------------------------------------------------------------------




--------------------------------------- Iteration      1(   2)  ---------------------------------------


    POTLOK:  cpu time    0.4346: real time    0.4459
    SETDIJ:  cpu time    0.0243: real time    0.0244
    EDDIAG:  cpu time    6.3815: real time    6.3847
  RMM-DIIS:  cpu time   22.5590: real time   22.5745
    ORTHCH:  cpu time    1.8008: real time    1.8013
       DOS:  cpu time    0.0090: real time    0.0090
    CHARGE:  cpu time    1.3682: real time    1.3687
    MIXING:  cpu time    0.0070: real time    0.0070
    --------------------------------------------
      LOOP:  cpu time   32.5844: real time   32.6154

 eigenvalue-minimisations  :  8976
 total energy-change (2. order) :-0.1927003E+02  (-0.1499070E+02)
 number of electron     677.0000071 magnetization      43.3504174
 augmentation part      396.2393259 magnetization      39.3597865

 DIPCOR: dipole corrections for dipol
 direction  3 min pos   244,
 dipolmoment           0.000000      0.000000      0.012840 electrons x Angstroem
 Tr[quadrupol]    -11196.531965

 energy correction for charged system         0.000000 eV
 dipol+quadrupol energy correction           -0.000008 eV
 added-field ion interaction          0.170778 eV  (added to PSCEN)


 Broyden mixing:
  rms(total) = 0.38321E+01    rms(broyden)= 0.38320E+01
  rms(prec ) = 0.50687E+01
  weight for this iteration     100.00

 eigenvalues of (default mixing * dielectric matrix)
  average eigenvalue GAMMA=   0.0818
  0.0818

 Free energy of the ion-electron system (eV)
  ---------------------------------------------------
  alpha Z        PSCENC =      1269.86287347
  Ewald energy   TEWEN  =    246789.30359990
  -Hartree energ DENC   =   -316375.36903737
  -exchange      EXHF   =         0.00000000
  -V(xc)+E(xc)   XCENC  =      2130.83821044
  PAW double counting   =     75810.74795944   -80241.25052951
  entropy T*S    EENTRO =         0.12297533
  eigenvalues    EBANDS =     -1339.49801068
  atomic energy  EATOM  =     71577.57373177
  Solvation  Ediel_sol  =         0.00000000
  ---------------------------------------------------
  free energy    TOTEN  =      -377.66822721 eV

  energy without entropy =     -377.79120254  energy(sigma->0) =     -377.70921898


--------------------------------------------------------------------------------------------------------




--------------------------------------- Iteration      1(   3)  ---------------------------------------


    POTLOK:  cpu time    0.4315: real time    0.4483
    SETDIJ:  cpu time    0.0242: real time    0.0242
    EDDIAG:  cpu time    6.3777: real time    6.3809
  RMM-DIIS:  cpu time   22.6132: real time   22.6265
    ORTHCH:  cpu time    1.8055: real time    1.8061
       DOS:  cpu time    0.0096: real time    0.0096
    CHARGE:  cpu time    1.3738: real time    1.3743
    MIXING:  cpu time    0.0073: real time    0.0073
    --------------------------------------------
      LOOP:  cpu time   32.6429: real time   32.6772

 eigenvalue-minimisations  :  8970
 total energy-change (2. order) : 0.2054737E+01  (-0.6411121E+00)
 number of electron     677.0000084 magnetization      43.3106192
 augmentation part      396.5353763 magnetization      40.4424826

 DIPCOR: dipole corrections for dipol
 direction  3 min pos   245,
 dipolmoment           0.000000      0.000000      0.562091 electrons x Angstroem
 Tr[quadrupol]    -11197.006748

 energy correction for charged system         0.000000 eV
 dipol+quadrupol energy correction           -0.015744 eV
 added-field ion interaction          9.977288 eV  (added to PSCEN)


 Broyden mixing:
  rms(total) = 0.32256E+01    rms(broyden)= 0.32254E+01
  rms(prec ) = 0.42058E+01
  weight for this iteration     100.00

 eigenvalues of (default mixing * dielectric matrix)
  average eigenvalue GAMMA=   0.1928
  0.3504  0.0352

 Free energy of the ion-electron system (eV)
  ---------------------------------------------------
  alpha Z        PSCENC =      1279.65364834
  Ewald energy   TEWEN  =    246789.30359990
  -Hartree energ DENC   =   -316378.70988488
  -exchange      EXHF   =         0.00000000
  -V(xc)+E(xc)   XCENC  =      2130.64624702
  PAW double counting   =     75806.91282660   -80234.87128397
  entropy T*S    EENTRO =        -0.07432592
  eigenvalues    EBANDS =     -1346.04804889
  atomic energy  EATOM  =     71577.57373177
  Solvation  Ediel_sol  =         0.00000000
  ---------------------------------------------------
  free energy    TOTEN  =      -375.61349003 eV

  energy without entropy =     -375.53916411  energy(sigma->0) =     -375.58871472


--------------------------------------------------------------------------------------------------------




--------------------------------------- Iteration      1(   4)  ---------------------------------------


    POTLOK:  cpu time    0.4363: real time    0.4459
    SETDIJ:  cpu time    0.0241: real time    0.0241
    EDDIAG:  cpu time    6.3731: real time    6.3759
  RMM-DIIS:  cpu time   22.7766: real time   22.7911
    ORTHCH:  cpu time    1.8008: real time    1.8022
       DOS:  cpu time    0.0094: real time    0.0094
    CHARGE:  cpu time    1.3676: real time    1.3678
    MIXING:  cpu time    0.0073: real time    0.0073
    --------------------------------------------
      LOOP:  cpu time   32.7952: real time   32.8238

 eigenvalue-minimisations  :  9031
 total energy-change (2. order) : 0.1855347E+01  (-0.2030837E+00)
 number of electron     677.0000085 magnetization      43.2609663
 augmentation part      398.0230678 magnetization      40.4899166

 DIPCOR: dipole corrections for dipol
 direction  3 min pos   239,
 dipolmoment           0.000000      0.000000      0.399247 electrons x Angstroem
 Tr[quadrupol]    -11196.270309

 energy correction for charged system         0.000000 eV
 dipol+quadrupol energy correction           -0.007943 eV
 added-field ion interaction         -3.572372 eV  (added to PSCEN)


 Broyden mixing:
  rms(total) = 0.18048E+01    rms(broyden)= 0.18047E+01
  rms(prec ) = 0.19954E+01
  weight for this iteration     100.00

 eigenvalues of (default mixing * dielectric matrix)
  average eigenvalue GAMMA=   0.2062
  0.4760  0.1052  0.0375

 Free energy of the ion-electron system (eV)
  ---------------------------------------------------
  alpha Z        PSCENC =      1266.11178877
  Ewald energy   TEWEN  =    246789.30359990
  -Hartree energ DENC   =   -316336.98641842
  -exchange      EXHF   =         0.00000000
  -V(xc)+E(xc)   XCENC  =      2129.42483538
  PAW double counting   =     75763.54272408   -80180.08598404
  entropy T*S    EENTRO =        -0.09762372
  eigenvalues    EBANDS =     -1382.54479643
  atomic energy  EATOM  =     71577.57373177
  Solvation  Ediel_sol  =         0.00000000
  ---------------------------------------------------
  free energy    TOTEN  =      -373.75814271 eV

  energy without entropy =     -373.66051899  energy(sigma->0) =     -373.72560147


--------------------------------------------------------------------------------------------------------




--------------------------------------- Iteration      1(   5)  ---------------------------------------


    POTLOK:  cpu time    0.4363: real time    0.4454
    SETDIJ:  cpu time    0.0241: real time    0.0241
    EDDIAG:  cpu time    6.3837: real time    6.3864
  RMM-DIIS:  cpu time   22.6036: real time   22.6200
    ORTHCH:  cpu time    1.8014: real time    1.8020
       DOS:  cpu time    0.0093: real time    0.0092
    CHARGE:  cpu time    1.3597: real time    1.3601
    MIXING:  cpu time    0.0072: real time    0.0072
    --------------------------------------------
      LOOP:  cpu time   32.6253: real time   32.6545

 eigenvalue-minimisations  :  8959
 total energy-change (2. order) : 0.1027459E+01  (-0.8678603E-01)
 number of electron     677.0000078 magnetization      43.2222715
 augmentation part      398.6055123 magnetization      40.1530142

 DIPCOR: dipole corrections for dipol
 direction  3 min pos   239,
 dipolmoment           0.000000      0.000000      0.385216 electrons x Angstroem
 Tr[quadrupol]    -11195.960927

 energy correction for charged system         0.000000 eV
 dipol+quadrupol energy correction           -0.007395 eV
 added-field ion interaction         -3.446825 eV  (added to PSCEN)


 Broyden mixing:
  rms(total) = 0.59769E+00    rms(broyden)= 0.59758E+00
  rms(prec ) = 0.71259E+00
  weight for this iteration     100.00

 eigenvalues of (default mixing * dielectric matrix)
  average eigenvalue GAMMA=   0.2289
  0.4362  0.3384  0.0369  0.1039

 Free energy of the ion-electron system (eV)
  ---------------------------------------------------
  alpha Z        PSCENC =      1266.23788418
  Ewald energy   TEWEN  =    246789.30359990
  -Hartree energ DENC   =   -316315.06359342
  -exchange      EXHF   =         0.00000000
  -V(xc)+E(xc)   XCENC  =      2128.91929172
  PAW double counting   =     75731.53890474   -80142.99347673
  entropy T*S    EENTRO =        -0.15285875
  eigenvalues    EBANDS =     -1408.09416674
  atomic energy  EATOM  =     71577.57373177
  Solvation  Ediel_sol  =         0.00000000
  ---------------------------------------------------
  free energy    TOTEN  =      -372.73068333 eV

  energy without entropy =     -372.57782458  energy(sigma->0) =     -372.67973041


--------------------------------------------------------------------------------------------------------




--------------------------------------- Iteration      1(   6)  ---------------------------------------


    POTLOK:  cpu time    0.4363: real time    0.4452
    SETDIJ:  cpu time    0.0240: real time    0.0241
    EDDIAG:  cpu time    6.3838: real time    6.3877
  RMM-DIIS:  cpu time   22.5955: real time   22.6103
    ORTHCH:  cpu time    1.8026: real time    1.8032
       DOS:  cpu time    0.0095: real time    0.0096
    CHARGE:  cpu time    1.3732: real time    1.3738
    MIXING:  cpu time    0.0074: real time    0.0074
    --------------------------------------------
      LOOP:  cpu time   32.6324: real time   32.6612

 eigenvalue-minimisations  :  8968
 total energy-change (2. order) :-0.1209925E+00  (-0.2453187E-01)
 number of electron     677.0000080 magnetization      43.1924900
 augmentation part      398.5365966 magnetization      40.0768618

 DIPCOR: dipole corrections for dipol
 direction  3 min pos   242,
 dipolmoment           0.000000      0.000000      0.358232 electrons x Angstroem
 Tr[quadrupol]    -11196.373249

 energy correction for charged system         0.000000 eV
 dipol+quadrupol energy correction           -0.006395 eV
 added-field ion interaction          1.576676 eV  (added to PSCEN)


 Broyden mixing:
  rms(total) = 0.86966E+00    rms(broyden)= 0.86963E+00
  rms(prec ) = 0.97908E+00
  weight for this iteration     100.00

 eigenvalues of (default mixing * dielectric matrix)
  average eigenvalue GAMMA=   0.2519
  0.5101  0.5101  0.0370  0.1208  0.0813

 Free energy of the ion-electron system (eV)
  ---------------------------------------------------
  alpha Z        PSCENC =      1271.26238531
  Ewald energy   TEWEN  =    246789.30359990
  -Hartree energ DENC   =   -316327.07257487
  -exchange      EXHF   =         0.00000000
  -V(xc)+E(xc)   XCENC  =      2128.91730390
  PAW double counting   =     75700.13082177   -80110.45836890
  entropy T*S    EENTRO =        -0.10608015
  eigenvalues    EBANDS =     -1402.40249458
  atomic energy  EATOM  =     71577.57373177
  Solvation  Ediel_sol  =         0.00000000
  ---------------------------------------------------
  free energy    TOTEN  =      -372.85167585 eV

  energy without entropy =     -372.74559570  energy(sigma->0) =     -372.81631580


--------------------------------------------------------------------------------------------------------




--------------------------------------- Iteration      1(   7)  ---------------------------------------


    POTLOK:  cpu time    0.4352: real time    0.4445
    SETDIJ:  cpu time    0.0241: real time    0.0241
    EDDIAG:  cpu time    6.4355: real time    6.4393
  RMM-DIIS:  cpu time   22.6482: real time   22.6621
    ORTHCH:  cpu time    1.8107: real time    1.8113
       DOS:  cpu time    0.0103: real time    0.0103
    CHARGE:  cpu time    1.3646: real time    1.3656
    MIXING:  cpu time    0.0076: real time    0.0076
    --------------------------------------------
      LOOP:  cpu time   32.7363: real time   32.7648

 eigenvalue-minimisations  :  8949
 total energy-change (2. order) : 0.1497119E+00  (-0.1118339E-01)
 number of electron     677.0000080 magnetization      43.1846736
 augmentation part      398.4281377 magnetization      40.1478283

 DIPCOR: dipole corrections for dipol
 direction  3 min pos   246,
 dipolmoment           0.000000      0.000000      0.365148 electrons x Angstroem
 Tr[quadrupol]    -11196.575787

 energy correction for charged system         0.000000 eV
 dipol+quadrupol energy correction           -0.006644 eV
 added-field ion interaction          8.106290 eV  (added to PSCEN)


 Broyden mixing:
  rms(total) = 0.43966E+00    rms(broyden)= 0.43964E+00
  rms(prec ) = 0.52053E+00
  weight for this iteration     100.00

 eigenvalues of (default mixing * dielectric matrix)
  average eigenvalue GAMMA=   0.2356
  0.5077  0.5077  0.1802  0.0369  0.0934  0.0875

 Free energy of the ion-electron system (eV)
  ---------------------------------------------------
  alpha Z        PSCENC =      1277.79174933
  Ewald energy   TEWEN  =    246789.30359990
  -Hartree energ DENC   =   -316331.20347560
  -exchange      EXHF   =         0.00000000
  -V(xc)+E(xc)   XCENC  =      2129.12087174
  PAW double counting   =     75662.61702982   -80072.54528337
  entropy T*S    EENTRO =        -0.11693696
  eigenvalues    EBANDS =     -1405.24325056
  atomic energy  EATOM  =     71577.57373177
  Solvation  Ediel_sol  =         0.00000000
  ---------------------------------------------------
  free energy    TOTEN  =      -372.70196393 eV

  energy without entropy =     -372.58502697  energy(sigma->0) =     -372.66298494


--------------------------------------------------------------------------------------------------------




--------------------------------------- Iteration      1(   8)  ---------------------------------------


    POTLOK:  cpu time    0.4369: real time    0.4466
    SETDIJ:  cpu time    0.0242: real time    0.0242
    EDDIAG:  cpu time    6.4282: real time    6.4307
  RMM-DIIS:  cpu time   22.6364: real time   22.6503
    ORTHCH:  cpu time    1.8161: real time    1.8167
       DOS:  cpu time    0.0097: real time    0.0097
    CHARGE:  cpu time    1.3633: real time    1.3637
    MIXING:  cpu time    0.0077: real time    0.0077
    --------------------------------------------
      LOOP:  cpu time   32.7226: real time   32.7496

 eigenvalue-minimisations  :  8957
 total energy-change (2. order) : 0.1320026E-01  (-0.2851939E-02)
 number of electron     677.0000079 magnetization      43.1740247
 augmentation part      398.4026125 magnetization      40.1156253

 DIPCOR: dipole corrections for dipol
 direction  3 min pos   250,
 dipolmoment           0.000000      0.000000      0.366629 electrons x Angstroem
 Tr[quadrupol]    -11196.769236

 energy correction for charged system         0.000000 eV
 dipol+quadrupol energy correction           -0.006698 eV
 added-field ion interaction         14.664701 eV  (added to PSCEN)


 Broyden mixing:
  rms(total) = 0.38693E+00    rms(broyden)= 0.38692E+00
  rms(prec ) = 0.46704E+00
  weight for this iteration     100.00

 eigenvalues of (default mixing * dielectric matrix)
  average eigenvalue GAMMA=   0.2616
  0.5756  0.5756  0.3576  0.0369  0.1036  0.1036  0.0781

 Free energy of the ion-electron system (eV)
  ---------------------------------------------------
  alpha Z        PSCENC =      1284.35010684
  Ewald energy   TEWEN  =    246789.30359990
  -Hartree energ DENC   =   -316332.45962029
  -exchange      EXHF   =         0.00000000
  -V(xc)+E(xc)   XCENC  =      2129.16760312
  PAW double counting   =     75647.73750888   -80057.36144427
  entropy T*S    EENTRO =        -0.11899596
  eigenvalues    EBANDS =     -1410.88125366
  atomic energy  EATOM  =     71577.57373177
  Solvation  Ediel_sol  =         0.00000000
  ---------------------------------------------------
  free energy    TOTEN  =      -372.68876367 eV

  energy without entropy =     -372.56976771  energy(sigma->0) =     -372.64909835


--------------------------------------------------------------------------------------------------------




--------------------------------------- Iteration      1(   9)  ---------------------------------------


    POTLOK:  cpu time    0.4464: real time    0.4473
    SETDIJ:  cpu time    0.0240: real time    0.0240
    EDDIAG:  cpu time    6.4208: real time    6.4247
  RMM-DIIS:  cpu time   22.7245: real time   22.7394
    ORTHCH:  cpu time    1.8152: real time    1.8156
       DOS:  cpu time    0.0097: real time    0.0097
    CHARGE:  cpu time    1.3633: real time    1.3641
    MIXING:  cpu time    0.0080: real time    0.0080
    --------------------------------------------
      LOOP:  cpu time   32.8127: real time   32.8327

 eigenvalue-minimisations  :  8982
 total energy-change (2. order) :-0.9289343E-02  (-0.1145630E-02)
 number of electron     677.0000080 magnetization      43.1677178
 augmentation part      398.4119161 magnetization      40.1577195

 DIPCOR: dipole corrections for dipol
 direction  3 min pos   252,
 dipolmoment           0.000000      0.000000      0.373505 electrons x Angstroem
 Tr[quadrupol]    -11196.931660

 energy correction for charged system         0.000000 eV
 dipol+quadrupol energy correction           -0.006952 eV
 added-field ion interaction         18.263677 eV  (added to PSCEN)


 Broyden mixing:
  rms(total) = 0.42895E+00    rms(broyden)= 0.42895E+00
  rms(prec ) = 0.53078E+00
  weight for this iteration     100.00

 eigenvalues of (default mixing * dielectric matrix)
  average eigenvalue GAMMA=   0.2507
  0.6149  0.6149  0.3678  0.0369  0.1085  0.1085  0.0771  0.0771

 Free energy of the ion-electron system (eV)
  ---------------------------------------------------
  alpha Z        PSCENC =      1287.94882865
  Ewald energy   TEWEN  =    246789.30359990
  -Hartree energ DENC   =   -316335.26985138
  -exchange      EXHF   =         0.00000000
  -V(xc)+E(xc)   XCENC  =      2129.25685086
  PAW double counting   =     75609.94779708   -80018.58165713
  entropy T*S    EENTRO =        -0.11173751
  eigenvalues    EBANDS =     -1412.76561527
  atomic energy  EATOM  =     71577.57373177
  Solvation  Ediel_sol  =         0.00000000
  ---------------------------------------------------
  free energy    TOTEN  =      -372.69805301 eV

  energy without entropy =     -372.58631550  energy(sigma->0) =     -372.66080718


--------------------------------------------------------------------------------------------------------




--------------------------------------- Iteration      1(  10)  ---------------------------------------


    POTLOK:  cpu time    0.4348: real time    0.4436
    SETDIJ:  cpu time    0.0244: real time    0.0244
    EDDIAG:  cpu time    6.4354: real time    6.4390
  RMM-DIIS:  cpu time   22.6769: real time   22.6911
    ORTHCH:  cpu time    1.8346: real time    1.8351
       DOS:  cpu time    0.0103: real time    0.0103
    CHARGE:  cpu time    1.3648: real time    1.3654
    MIXING:  cpu time    0.0082: real time    0.0082
    --------------------------------------------
      LOOP:  cpu time   32.7885: real time   32.8171

 eigenvalue-minimisations  :  8979
 total energy-change (2. order) : 0.3670510E-02  (-0.5902394E-03)
 number of electron     677.0000079 magnetization      43.1531291
 augmentation part      398.4380788 magnetization      40.1849729

 DIPCOR: dipole corrections for dipol
 direction  3 min pos   253,
 dipolmoment           0.000000      0.000000      0.379676 electrons x Angstroem
 Tr[quadrupol]    -11196.983120

 energy correction for charged system         0.000000 eV
 dipol+quadrupol energy correction           -0.007183 eV
 added-field ion interaction         20.254882 eV  (added to PSCEN)


 Broyden mixing:
  rms(total) = 0.42248E+00    rms(broyden)= 0.42248E+00
  rms(prec ) = 0.54372E+00
  weight for this iteration     100.00

 eigenvalues of (default mixing * dielectric matrix)
  average eigenvalue GAMMA=   0.3314
  0.8239  0.8239  0.4500  0.4500  0.0369  0.1277  0.1033  0.0890  0.0777

 Free energy of the ion-electron system (eV)
  ---------------------------------------------------
  alpha Z        PSCENC =      1289.93980212
  Ewald energy   TEWEN  =    246789.30359990
  -Hartree energ DENC   =   -316335.62470999
  -exchange      EXHF   =         0.00000000
  -V(xc)+E(xc)   XCENC  =      2129.31983298
  PAW double counting   =     75583.44444876   -79991.38760159
  entropy T*S    EENTRO =        -0.11889255
  eigenvalues    EBANDS =     -1415.14459392
  atomic energy  EATOM  =     71577.57373177
  Solvation  Ediel_sol  =         0.00000000
  ---------------------------------------------------
  free energy    TOTEN  =      -372.69438250 eV

  energy without entropy =     -372.57548996  energy(sigma->0) =     -372.65475165


--------------------------------------------------------------------------------------------------------




--------------------------------------- Iteration      1(  11)  ---------------------------------------


    POTLOK:  cpu time    0.4368: real time    0.4457
    SETDIJ:  cpu time    0.0240: real time    0.0240
    EDDIAG:  cpu time    6.4235: real time    6.4269
  RMM-DIIS:  cpu time   22.5740: real time   22.5876
    ORTHCH:  cpu time    1.8126: real time    1.8140
       DOS:  cpu time    0.0098: real time    0.0098
    CHARGE:  cpu time    1.3665: real time    1.3669
    MIXING:  cpu time    0.0085: real time    0.0085
    --------------------------------------------
      LOOP:  cpu time   32.6557: real time   32.6835

 eigenvalue-minimisations  :  8929
 total energy-change (2. order) : 0.2416836E-01  (-0.1123997E-02)
 number of electron     677.0000079 magnetization      43.1342645
 augmentation part      398.4623552 magnetization      40.1530669

 DIPCOR: dipole corrections for dipol
 direction  3 min pos   251,
 dipolmoment           0.000000      0.000000      0.366145 electrons x Angstroem
 Tr[quadrupol]    -11196.928165

 energy correction for charged system         0.000000 eV
 dipol+quadrupol energy correction           -0.006680 eV
 added-field ion interaction         16.274556 eV  (added to PSCEN)


 Broyden mixing:
  rms(total) = 0.34853E+00    rms(broyden)= 0.34853E+00
  rms(prec ) = 0.41820E+00
  weight for this iteration     100.00

 eigenvalues of (default mixing * dielectric matrix)
  average eigenvalue GAMMA=   0.3765
  1.1008  1.1008  0.5178  0.5178  0.0369  0.1293  0.1070  0.0958  0.0820  0.0763

 Free energy of the ion-electron system (eV)
  ---------------------------------------------------
  alpha Z        PSCENC =      1285.95997946
  Ewald energy   TEWEN  =    246789.30359990
  -Hartree energ DENC   =   -316338.70248008
  -exchange      EXHF   =         0.00000000
  -V(xc)+E(xc)   XCENC  =      2129.35444744
  PAW double counting   =     75534.80472465   -79941.37453899
  entropy T*S    EENTRO =        -0.10851490
  eigenvalues    EBANDS =     -1409.48116341
  atomic energy  EATOM  =     71577.57373177
  Solvation  Ediel_sol  =         0.00000000
  ---------------------------------------------------
  free energy    TOTEN  =      -372.67021415 eV

  energy without entropy =     -372.56169925  energy(sigma->0) =     -372.63404251


--------------------------------------------------------------------------------------------------------




--------------------------------------- Iteration      1(  12)  ---------------------------------------


    POTLOK:  cpu time    0.4367: real time    0.4457
    SETDIJ:  cpu time    0.0242: real time    0.0242
    EDDIAG:  cpu time    6.4059: real time    6.4086
  RMM-DIIS:  cpu time   22.5650: real time   22.5806
    ORTHCH:  cpu time    1.8037: real time    1.8044
       DOS:  cpu time    0.0100: real time    0.0100
    CHARGE:  cpu time    1.3664: real time    1.3667
    MIXING:  cpu time    0.0087: real time    0.0087
    --------------------------------------------
      LOOP:  cpu time   32.6207: real time   32.6489

 eigenvalue-minimisations  :  8940
 total energy-change (2. order) : 0.6185535E-01  (-0.1232518E-02)
 number of electron     677.0000079 magnetization      43.1287610
 augmentation part      398.5195119 magnetization      40.1709676

 DIPCOR: dipole corrections for dipol
 direction  3 min pos   248,
 dipolmoment           0.000000      0.000000      0.354857 electrons x Angstroem
 Tr[quadrupol]    -11196.825650

 energy correction for charged system         0.000000 eV
 dipol+quadrupol energy correction           -0.006275 eV
 added-field ion interaction         11.035814 eV  (added to PSCEN)


 Broyden mixing:
  rms(total) = 0.16686E+00    rms(broyden)= 0.16685E+00
  rms(prec ) = 0.19148E+00
  weight for this iteration     100.00

 eigenvalues of (default mixing * dielectric matrix)
  average eigenvalue GAMMA=   0.3806
  1.2078  1.2078  0.5332  0.5332  0.1855  0.0369  0.1153  0.1153  0.0909  0.0841
  0.0769

 Free energy of the ion-electron system (eV)
  ---------------------------------------------------
  alpha Z        PSCENC =      1280.72164281
  Ewald energy   TEWEN  =    246789.30359990
  -Hartree energ DENC   =   -316341.51422894
  -exchange      EXHF   =         0.00000000
  -V(xc)+E(xc)   XCENC  =      2129.44900125
  PAW double counting   =     75462.14919120   -79866.67725612
  entropy T*S    EENTRO =        -0.11136563
  eigenvalues    EBANDS =     -1403.50267505
  atomic energy  EATOM  =     71577.57373177
  Solvation  Ediel_sol  =         0.00000000
  ---------------------------------------------------
  free energy    TOTEN  =      -372.60835880 eV

  energy without entropy =     -372.49699317  energy(sigma->0) =     -372.57123692


--------------------------------------------------------------------------------------------------------




--------------------------------------- Iteration      1(  13)  ---------------------------------------


    POTLOK:  cpu time    0.4373: real time    0.4468
    SETDIJ:  cpu time    0.0241: real time    0.0241
    EDDIAG:  cpu time    6.4080: real time    6.4114
  RMM-DIIS:  cpu time   22.5815: real time   22.5967
    ORTHCH:  cpu time    1.8064: real time    1.8070
       DOS:  cpu time    0.0098: real time    0.0098
    CHARGE:  cpu time    1.3651: real time    1.3657
    MIXING:  cpu time    0.0090: real time    0.0090
    --------------------------------------------
      LOOP:  cpu time   32.6421: real time   32.6705

 eigenvalue-minimisations  :  8952
 total energy-change (2. order) : 0.2785264E-01  (-0.6289378E-03)
 number of electron     677.0000078 magnetization      43.1242708
 augmentation part      398.5467820 magnetization      40.1910316

 DIPCOR: dipole corrections for dipol
 direction  3 min pos   246,
 dipolmoment           0.000000      0.000000      0.354722 electrons x Angstroem
 Tr[quadrupol]    -11196.751895

 energy correction for charged system         0.000000 eV
 dipol+quadrupol energy correction           -0.006270 eV
 added-field ion interaction          7.874835 eV  (added to PSCEN)


 Broyden mixing:
  rms(total) = 0.12907E+00    rms(broyden)= 0.12907E+00
  rms(prec ) = 0.14768E+00
  weight for this iteration     100.00

 eigenvalues of (default mixing * dielectric matrix)
  average eigenvalue GAMMA=   0.4031
  1.3347  1.3347  0.5756  0.5756  0.3849  0.0369  0.1254  0.1220  0.0999  0.0902
  0.0805  0.0764

 Free energy of the ion-electron system (eV)
  ---------------------------------------------------
  alpha Z        PSCENC =      1277.56066883
  Ewald energy   TEWEN  =    246789.30359990
  -Hartree energ DENC   =   -316342.73597555
  -exchange      EXHF   =         0.00000000
  -V(xc)+E(xc)   XCENC  =      2129.50255641
  PAW double counting   =     75434.93488667   -79838.65396974
  entropy T*S    EENTRO =        -0.11485104
  eigenvalues    EBANDS =     -1399.95115340
  atomic energy  EATOM  =     71577.57373177
  Solvation  Ediel_sol  =         0.00000000
  ---------------------------------------------------
  free energy    TOTEN  =      -372.58050615 eV

  energy without entropy =     -372.46565511  energy(sigma->0) =     -372.54222247


--------------------------------------------------------------------------------------------------------




--------------------------------------- Iteration      1(  14)  ---------------------------------------


    POTLOK:  cpu time    0.4357: real time    0.4440
    SETDIJ:  cpu time    0.0240: real time    0.0240
    EDDIAG:  cpu time    6.4005: real time    6.4040
  RMM-DIIS:  cpu time   22.6155: real time   22.6299
    ORTHCH:  cpu time    1.8052: real time    1.8059
       DOS:  cpu time    0.0101: real time    0.0101
    CHARGE:  cpu time    1.3667: real time    1.3671
    MIXING:  cpu time    0.0092: real time    0.0092
    --------------------------------------------
      LOOP:  cpu time   32.6661: real time   32.6942

 eigenvalue-minimisations  :  8951
 total energy-change (2. order) : 0.3137640E-01  (-0.4278086E-03)
 number of electron     677.0000079 magnetization      43.1201347
 augmentation part      398.5769997 magnetization      40.1926290

 DIPCOR: dipole corrections for dipol
 direction  3 min pos   245,
 dipolmoment           0.000000      0.000000      0.357825 electrons x Angstroem
 Tr[quadrupol]    -11196.747906

 energy correction for charged system         0.000000 eV
 dipol+quadrupol energy correction           -0.006380 eV
 added-field ion interaction          6.351499 eV  (added to PSCEN)


 Broyden mixing:
  rms(total) = 0.12137E+00    rms(broyden)= 0.12137E+00
  rms(prec ) = 0.13918E+00
  weight for this iteration     100.00

 eigenvalues of (default mixing * dielectric matrix)
  average eigenvalue GAMMA=   0.4030
  1.4196  1.4196  0.6092  0.6092  0.4131  0.0369  0.1512  0.1253  0.1062  0.1062
  0.0862  0.0801  0.0763

 Free energy of the ion-electron system (eV)
  ---------------------------------------------------
  alpha Z        PSCENC =      1276.03722247
  Ewald energy   TEWEN  =    246789.30359990
  -Hartree energ DENC   =   -316344.93187820
  -exchange      EXHF   =         0.00000000
  -V(xc)+E(xc)   XCENC  =      2129.55264881
  PAW double counting   =     75410.83579512   -79813.71448037
  entropy T*S    EENTRO =        -0.11189018
  eigenvalues    EBANDS =     -1397.09387909
  atomic energy  EATOM  =     71577.57373177
  Solvation  Ediel_sol  =         0.00000000
  ---------------------------------------------------
  free energy    TOTEN  =      -372.54912975 eV

  energy without entropy =     -372.43723958  energy(sigma->0) =     -372.51183303


--------------------------------------------------------------------------------------------------------




--------------------------------------- Iteration      1(  15)  ---------------------------------------


    POTLOK:  cpu time    0.4351: real time    0.4460
    SETDIJ:  cpu time    0.0242: real time    0.0242
    EDDIAG:  cpu time    6.4083: real time    6.4111
  RMM-DIIS:  cpu time   22.6714: real time   22.6866
    ORTHCH:  cpu time    1.8004: real time    1.8018
       DOS:  cpu time    0.0098: real time    0.0098
    CHARGE:  cpu time    1.3646: real time    1.3648
    MIXING:  cpu time    0.0094: real time    0.0094
    --------------------------------------------
      LOOP:  cpu time   32.7241: real time   32.7538

 eigenvalue-minimisations  :  8970
 total energy-change (2. order) : 0.2354158E-01  (-0.2606637E-03)
 number of electron     677.0000078 magnetization      43.1134439
 augmentation part      398.6007191 magnetization      40.1929346

 DIPCOR: dipole corrections for dipol
 direction  3 min pos   245,
 dipolmoment           0.000000      0.000000      0.360958 electrons x Angstroem
 Tr[quadrupol]    -11196.754146

 energy correction for charged system         0.000000 eV
 dipol+quadrupol energy correction           -0.006493 eV
 added-field ion interaction          6.407126 eV  (added to PSCEN)


 Broyden mixing:
  rms(total) = 0.91417E-01    rms(broyden)= 0.91414E-01
  rms(prec ) = 0.11090E+00
  weight for this iteration     100.00

 eigenvalues of (default mixing * dielectric matrix)
  average eigenvalue GAMMA=   0.4357
  1.5781  1.5781  0.6984  0.6984  0.4110  0.4110  0.0369  0.1325  0.1157  0.1089
  0.0909  0.0854  0.0787  0.0764

 Free energy of the ion-electron system (eV)
  ---------------------------------------------------
  alpha Z        PSCENC =      1276.09273728
  Ewald energy   TEWEN  =    246789.30359990
  -Hartree energ DENC   =   -316345.59267548
  -exchange      EXHF   =         0.00000000
  -V(xc)+E(xc)   XCENC  =      2129.59610934
  PAW double counting   =     75394.33353086   -79796.67431261
  entropy T*S    EENTRO =        -0.11511951
  eigenvalues    EBANDS =     -1397.04318974
  atomic energy  EATOM  =     71577.57373177
  Solvation  Ediel_sol  =         0.00000000
  ---------------------------------------------------
[...]
   -.918E+02 -.449E+02 -.285E+04   0.935E+02 0.459E+02 0.285E+04   -.167E+01 -.977E+00 0.418E+00   -.755E-01 -.171E-01 -.113E+00
   -.311E+01 -.160E+01 0.123E+04   0.318E+01 0.165E+01 -.123E+04   0.781E-02 -.637E-01 -.178E+00   -.501E-01 0.267E-01 -.308E+00
   0.549E+01 -.314E+01 -.782E+03   -.535E+01 0.306E+01 0.782E+03   -.417E-01 0.246E-01 0.521E+00   -.898E-01 0.511E-01 -.270E+00
   0.205E+00 0.449E+00 0.321E+04   -.243E+00 -.476E+00 -.321E+04   0.188E-01 0.867E-02 -.143E+01   0.838E-03 0.278E-01 -.970E-01
   0.114E+03 -.660E+02 -.282E+04   -.116E+03 0.669E+02 0.282E+04   0.173E+01 -.901E+00 0.284E+00   -.656E-01 0.449E-01 -.840E-01
   0.171E+01 0.172E+01 0.123E+04   -.177E+01 -.176E+01 -.123E+04   0.400E-03 0.165E-01 -.236E+00   0.465E-01 0.509E-02 -.345E+00
   0.341E+01 -.739E+01 -.791E+03   -.324E+01 0.720E+01 0.791E+03   -.129E+00 0.150E+00 0.272E+00   -.494E-01 0.441E-01 -.336E+00
   0.921E-01 0.680E-01 0.321E+04   -.113E+00 -.685E-01 -.321E+04   -.204E-01 0.734E-02 -.143E+01   0.601E-01 0.869E-03 -.800E-01
   -.111E+03 -.715E+02 -.282E+04   0.113E+03 0.723E+02 0.282E+04   -.173E+01 -.858E+00 0.305E+00   0.917E-01 0.342E-01 -.960E-01
   0.280E+01 -.316E+01 0.123E+04   -.288E+01 0.322E+01 -.123E+04   -.467E-02 -.635E-01 -.182E+00   0.537E-01 0.835E-02 -.333E+00
   0.227E+01 -.988E+01 -.784E+03   -.248E+01 0.971E+01 0.784E+03   0.129E+00 0.127E+00 0.314E+00   0.984E-01 0.413E-01 -.350E+00
   -.954E-02 -.110E+00 0.321E+04   0.112E-02 0.132E+00 -.321E+04   -.168E-01 0.134E-01 -.143E+01   0.274E-01 -.553E-01 -.810E-01
   0.632E+01 0.132E+03 -.282E+04   -.622E+01 -.134E+03 0.282E+04   -.119E+00 0.192E+01 0.304E+00   0.158E-01 -.963E-01 -.954E-01
   0.414E+01 -.837E+00 0.123E+04   -.423E+01 0.881E+00 -.123E+04   0.528E-01 0.361E-01 -.182E+00   0.183E-01 -.539E-01 -.333E+00
   -.826E+00 0.483E+00 -.804E+03   0.735E+00 -.429E+00 0.805E+03   0.160E-01 -.895E-02 -.116E+01   0.750E-01 -.450E-01 -.308E+00
   0.253E+00 -.127E+00 0.321E+04   -.246E+00 0.182E+00 -.321E+04   0.205E-02 -.446E-02 -.124E+01   -.933E-02 -.450E-01 -.672E-01
   0.742E+01 0.574E+02 -.280E+04   -.746E+01 -.577E+02 0.279E+04   0.344E-01 0.480E+00 0.322E+01   -.974E-03 -.143E+00 -.123E+00
   -.412E+01 0.197E+01 0.123E+04   0.424E+01 -.199E+01 -.123E+04   -.495E-01 0.356E-01 -.204E+00   -.499E-01 -.143E-01 -.325E+00
   -.121E+00 0.125E+02 -.778E+03   0.149E+00 -.124E+02 0.778E+03   -.553E-02 -.294E-01 0.522E+00   -.219E-01 -.618E-01 -.283E+00
   -.703E-01 0.500E+00 0.322E+04   0.799E-01 -.550E+00 -.321E+04   0.136E-01 0.251E-01 -.143E+01   -.252E-01 0.290E-02 -.883E-01
   -.141E+02 0.144E+03 -.282E+04   0.141E+02 -.145E+03 0.282E+04   0.734E-01 0.187E+01 0.239E+00   -.209E-01 -.648E-01 -.883E-01
   0.372E+01 0.371E+01 0.123E+04   -.380E+01 -.378E+01 -.123E+04   0.660E-01 0.499E-01 -.188E+00   -.207E-01 0.429E-02 -.336E+00
   0.214E+00 0.596E+01 -.808E+03   -.121E+00 -.596E+01 0.810E+03   -.193E-01 0.833E-02 -.115E+01   -.752E-01 -.150E-01 -.291E+00
   -.176E+00 0.103E+00 0.322E+04   0.164E+00 -.943E-01 -.321E+04   0.362E-02 -.256E-02 -.126E+01   0.709E-02 -.584E-02 -.102E+00
   -.253E+01 0.143E+01 -.285E+04   0.245E+01 -.138E+01 0.285E+04   0.835E-01 -.495E-01 0.336E+01   0.513E-02 -.269E-02 -.952E-01
   -.380E+01 0.219E+01 0.123E+04   0.384E+01 -.222E+01 -.123E+04   -.662E-01 0.385E-01 -.189E+00   0.523E-01 -.325E-01 -.341E+00
   0.696E+00 0.336E+01 -.781E+03   -.724E+00 -.329E+01 0.781E+03   0.691E-02 -.760E-01 0.482E+00   0.222E-01 0.128E-01 -.308E+00
   0.648E+02 0.330E+02 -.228E+04   -.654E+02 -.333E+02 0.231E+04   0.563E+00 0.369E+00 -.290E+02   -.365E-01 -.313E-01 0.616E-01
   0.382E+01 -.726E+02 -.228E+04   -.380E+01 0.732E+02 0.231E+04   -.347E-01 -.680E+00 -.290E+02   0.894E-02 0.476E-01 0.617E-01
   -.209E+01 0.122E+01 -.229E+04   0.210E+01 -.123E+01 0.232E+04   -.267E-02 0.906E-03 -.284E+02   -.947E-02 0.505E-02 -.236E-01
   -.767E+02 0.442E+02 -.226E+04   0.770E+02 -.444E+02 0.228E+04   -.318E+00 0.190E+00 -.267E+02   0.288E-01 -.161E-01 0.541E-01
   0.479E+02 -.280E+02 -.209E+04   -.553E+02 0.323E+02 0.208E+04   0.745E+01 -.435E+01 0.696E+01   0.117E-01 -.702E-02 0.905E-01
   0.110E+02 -.561E+01 -.209E+04   -.399E+02 0.219E+02 0.211E+04   0.289E+02 -.163E+02 -.301E+02   0.141E-01 -.814E-02 0.127E+00
   -.757E+02 0.429E+02 -.335E+03   0.827E+02 -.468E+02 0.334E+03   -.699E+01 0.396E+01 0.555E+00   0.632E-02 -.357E-02 0.170E-01
 -----------------------------------------------------------------------------------------------
   -.300E+02 0.170E+02 0.154E+03   0.185E-12 -.234E-12 0.495E-11   0.300E+02 -.170E+02 -.141E+03   0.178E-01 -.116E-01 -.130E+02
 
 
 POSITION                                       TOTAL-FORCE (eV/Angst)
 -----------------------------------------------------------------------------------
     -0.00000      1.94796      2.00000        -0.018123      0.010311      0.253558
     -0.05367      1.96475      8.07106         0.018664     -0.010365     -0.010442
      1.24593      1.22862      4.03457         0.006864      0.018495     -0.208026
     -0.00052      0.50991      6.00838        -0.004855     -0.003266     -0.007026
      2.49184      1.94796      2.00000         0.018251      0.011032      0.255424
      2.46359      1.93181      8.16325        -0.022049     -0.009450     -0.010678
      3.73777      1.22862      4.03457        -0.011243      0.027141     -0.155551
      2.48595      0.51953      6.02703         0.003238     -0.002518     -0.002871
      4.98369      1.94796      2.00000        -0.018945      0.010465      0.248473
      4.99015      1.94431      8.07862         0.020830     -0.011770     -0.002179
      6.22962      1.22862      4.03457        -0.001070      0.000749     -0.237933
      4.98710      0.51807      6.01910        -0.002196     -0.002414     -0.000148
      7.47553      1.94796      2.00000         0.017575      0.011752      0.255018
      7.51207      1.96589      8.07748        -0.010001     -0.010286     -0.014638
      8.72146      1.22862      4.03457        -0.003679      0.042399     -0.234398
      7.47236      0.51119      6.01224         0.007501     -0.004333     -0.008861
     -1.24593      4.10596      2.00000         0.000711     -0.008302      0.240119
     -1.24763      4.07991      8.07588        -0.000056      0.018670     -0.003066
      0.00000      3.38662      4.03457         0.007898     -0.035314     -0.212662
     -1.24925      2.66944      6.04747        -0.000604      0.000646     -0.014756
      1.24592      4.10596      2.00000         0.005724     -0.003780      0.188446
      1.22640      4.11735      7.95628         0.001423     -0.000720      0.010582
      2.49185      3.38662      4.03457        -0.007962      0.004760     -0.150367
      1.25149      2.65848      6.03257        -0.000176      0.004209     -0.002318
      3.73776      4.10596      2.00000        -0.000838     -0.022043      0.255465
      3.73775      4.13892      8.16350        -0.002650      0.023829     -0.011351
      4.98369      3.38662      4.03457        -0.028896     -0.003527     -0.155635
      3.72936      2.67227      6.06198        -0.001556      0.000936     -0.000852
      6.22961      4.10596      2.00000        -0.005257     -0.004158      0.193619
      6.25112      4.11982      7.94672        -0.000394     -0.000398      0.010012
      7.47554      3.38662      4.03457         0.010872     -0.022523     -0.256892
      6.22380      2.66003      6.01907         0.001067      0.003216     -0.000112
     -2.49185      6.26396      2.00000        -0.009069      0.004771      0.243466
     -2.51372      6.27672      8.07382         0.013004     -0.007259     -0.003766
     -1.24592      5.54462      4.03457         0.007431     -0.004045     -0.263209
     -2.49048      4.82620      6.00332        -0.006329     -0.003671     -0.002777
     -0.00000      6.26396      2.00000         0.007163      0.002840      0.240090
      0.02198      6.27882      8.07573        -0.015684     -0.008667     -0.003461
      1.24593      5.54462      4.03457         0.034708      0.011104     -0.212529
     -0.00080      4.82582      6.00545         0.004556     -0.002512     -0.001612
      2.49184      6.26396      2.00000        -0.018424      0.009816      0.253575
      2.45046      6.30237      8.07096         0.019212     -0.010982     -0.010734
      3.73777      5.54462      4.03457        -0.012456     -0.015015     -0.207931
      2.50226      4.82495      6.03261        -0.003573     -0.001906     -0.002509
      4.98369      6.26396      2.00000         0.018601      0.007802      0.253344
      5.02255      6.30072      8.06822        -0.015980     -0.008053     -0.010533
      6.22962      5.54462      4.03457        -0.031382      0.003952     -0.232642
      4.97196      4.82536      6.02706         0.003941     -0.001474     -0.002913
     -3.73777      8.42196      2.00000         0.002127     -0.020676      0.253348
     -3.75001      8.37020      8.06836        -0.000854      0.018262     -0.009873
     -2.49184      7.70262      4.03457        -0.018931      0.025504     -0.232717
     -3.73438      6.98142      6.04231        -0.000666      0.000621     -0.012384
     -1.24593      8.42196      2.00000         0.000559      0.005903      0.193643
     -1.24710      8.39660      7.94680         0.000134      0.000873      0.009971
      0.00000      7.70262      4.03457         0.024979      0.002221     -0.256833
     -1.24599      6.98177      6.00333         0.000158      0.007599     -0.002854
      1.24592      8.42196      2.00000        -0.001811     -0.021779      0.255064
      1.24878      8.38165      8.07758         0.004142      0.013416     -0.015251
      2.49185      7.70262      4.03457        -0.038370     -0.017659     -0.234578
      1.24243      6.98526      6.04744        -0.000650      0.000421     -0.015112
      3.73776      8.42196      2.00000        -0.001080      0.000177      0.189143
      3.73179      8.42553      7.96914         0.001584     -0.000867      0.010197
      4.98369      7.70262      4.03457         0.031038     -0.017735     -0.245672
      3.73700      6.98350      6.00835         0.000597      0.005992     -0.007171
      1.12447      1.15919      9.20355        -0.005954     -0.000611     -0.025099
      3.73733      5.68509      9.20333        -0.001456      0.005322     -0.025065
     -1.24563      5.54490      9.19029        -0.000152      0.001529     -0.042079
      6.29919      1.18871      9.21749         0.010576     -0.006322     -0.018894
      3.79108      2.63634      9.42461         0.011818     -0.007076      0.005430
      4.09017      2.46097     10.90088         0.016035     -0.007151     -0.013055
      4.94726      1.97494     10.81525        -0.009608      0.001896     -0.005970
 -----------------------------------------------------------------------------------
    total drift:                               -0.005409      0.002451      0.072301


--------------------------------------------------------------------------------------------------------



  FREE ENERGIE OF THE ION-ELECTRON SYSTEM (eV)
  ---------------------------------------------------
  free  energy   TOTEN  =      -390.92675531 eV

  energy  without entropy=     -390.81497758  energy(sigma->0) =     -390.88949607
 
 d Force = 0.1195954E-03[-0.386E-03, 0.625E-03]  d Energy = 0.4996167E-03-0.380E-03
 d Force = 0.2580033E+02[ 0.258E+02, 0.258E+02]  d Ewald  = 0.2580034E+02-0.234E-05


--------------------------------------------------------------------------------------------------------


    POTLOK:  cpu time    0.4529: real time    0.4530


--------------------------------------------------------------------------------------------------------


 stress matrix after NEB project (eV)
    -32.36850      0.12210      0.19953
      0.12210    -32.24895     -0.12656
      0.19953     -0.12656     -9.55324
  FORCES: max atom, RMS     0.042107    0.012916
  FORCE total and by dimension    0.108834    0.042079
  Stress total and by dimension   46.681053   32.368502


--------------------------------------------------------------------------------------------------------


  
 reached required accuracy - stopping structural energy minimisation
 writing wavefunctions
     LOOP+:  cpu time  361.4610: real time  408.7092
    4ORBIT:  cpu time    0.0000: real time    0.0000
 


 total charge     
 
# of ion       s       p       d       tot
------------------------------------------
    1        0.485   0.377   8.304   9.166
    2        0.503   0.523   8.324   9.349
    3        0.498   0.502   8.314   9.313
    4        0.497   0.504   8.320   9.321
    5        0.486   0.377   8.303   9.166
    6        0.450   0.527   8.336   9.313
    7        0.494   0.499   8.309   9.303
    8        0.497   0.501   8.317   9.315
    9        0.486   0.377   8.303   9.166
   10        0.462   0.560   8.333   9.356
   11        0.498   0.503   8.315   9.316
   12        0.500   0.507   8.318   9.325
   13        0.485   0.377   8.304   9.166
   14        0.498   0.514   8.320   9.333
   15        0.496   0.502   8.312   9.310
   16        0.497   0.504   8.319   9.320
   17        0.486   0.377   8.303   9.165
   18        0.496   0.509   8.322   9.327
   19        0.495   0.500   8.313   9.308
   20        0.503   0.506   8.329   9.338
   21        0.489   0.377   8.298   9.163
   22        0.476   0.375   8.358   9.209
   23        0.494   0.498   8.310   9.302
   24        0.497   0.501   8.316   9.315
   25        0.486   0.377   8.303   9.166
   26        0.450   0.527   8.336   9.313
   27        0.494   0.499   8.309   9.303
   28        0.494   0.490   8.320   9.303
   29        0.489   0.377   8.296   9.162
   30        0.477   0.377   8.360   9.214
   31        0.496   0.501   8.313   9.311
   32        0.500   0.507   8.318   9.325
   33        0.486   0.377   8.301   9.164
   34        0.496   0.509   8.322   9.327
   35        0.500   0.506   8.314   9.320
   36        0.499   0.507   8.319   9.325
   37        0.486   0.377   8.303   9.165
   38        0.496   0.509   8.322   9.327
   39        0.495   0.500   8.313   9.308
   40        0.498   0.504   8.319   9.321
   41        0.485   0.377   8.304   9.166
   42        0.503   0.523   8.324   9.349
   43        0.498   0.502   8.314   9.313
   44        0.497   0.501   8.316   9.315
   45        0.485   0.377   8.303   9.166
   46        0.503   0.522   8.325   9.350
   47        0.496   0.501   8.312   9.309
   48        0.497   0.501   8.317   9.315
   49        0.485   0.377   8.303   9.166
   50        0.503   0.522   8.325   9.350
   51        0.496   0.501   8.312   9.309
   52        0.504   0.507   8.329   9.341
   53        0.489   0.377   8.296   9.162
   54        0.477   0.377   8.360   9.214
   55        0.496   0.501   8.313   9.311
   56        0.499   0.507   8.319   9.325
   57        0.485   0.377   8.304   9.166
   58        0.498   0.514   8.320   9.333
   59        0.496   0.502   8.312   9.310
   60        0.503   0.506   8.329   9.338
   61        0.489   0.376   8.298   9.163
   62        0.471   0.377   8.357   9.205
   63        0.497   0.502   8.312   9.311
   64        0.497   0.504   8.320   9.321
   65        1.584   3.337   0.000   4.921
   66        1.584   3.337   0.000   4.921
   67        1.583   3.336   0.000   4.918
   68        1.579   3.346   0.000   4.925
   69        1.582   3.304   0.000   4.886
   70        1.596   3.346   0.000   4.942
   71        0.604   0.113   0.000   0.716
--------------------------------------------------
tot         41.574  49.992 532.289 623.855
 


 magnetization (x)
 
# of ion       s       p       d       tot
------------------------------------------
    1       -0.008  -0.025   0.707   0.673
    2       -0.002  -0.012   0.572   0.557
    3       -0.006  -0.025   0.764   0.733
    4       -0.006  -0.024   0.736   0.705
    5       -0.008  -0.025   0.707   0.674
    6       -0.003  -0.010   0.592   0.579
    7       -0.006  -0.025   0.739   0.709
    8       -0.006  -0.024   0.727   0.696
    9       -0.008  -0.025   0.706   0.672
   10       -0.005  -0.010   0.639   0.623
   11       -0.006  -0.026   0.765   0.733
   12       -0.006  -0.025   0.721   0.690
   13       -0.008  -0.025   0.705   0.672
   14       -0.003  -0.013   0.608   0.592
   15       -0.006  -0.025   0.730   0.700
   16       -0.007  -0.025   0.739   0.708
   17       -0.007  -0.025   0.715   0.683
   18       -0.003  -0.014   0.606   0.589
   19       -0.006  -0.025   0.721   0.690
   20       -0.006  -0.021   0.592   0.565
   21       -0.002  -0.025   0.748   0.722
   22       -0.010  -0.015   0.791   0.765
   23       -0.006  -0.025   0.736   0.706
   24       -0.006  -0.024   0.722   0.691
   25       -0.008  -0.025   0.707   0.674
   26       -0.003  -0.010   0.591   0.579
   27       -0.006  -0.025   0.739   0.709
   28       -0.006  -0.022   0.671   0.643
   29       -0.002  -0.025   0.750   0.723
   30       -0.011  -0.016   0.797   0.770
   31       -0.005  -0.025   0.719   0.690
   32       -0.006  -0.025   0.721   0.690
   33       -0.007  -0.025   0.719   0.686
   34       -0.003  -0.013   0.602   0.586
   35       -0.006  -0.025   0.766   0.736
   36       -0.007  -0.025   0.734   0.703
   37       -0.007  -0.025   0.715   0.683
   38       -0.003  -0.014   0.606   0.589
   39       -0.006  -0.025   0.721   0.690
   40       -0.007  -0.025   0.737   0.706
   41       -0.008  -0.025   0.707   0.673
   42       -0.002  -0.012   0.572   0.558
   43       -0.006  -0.025   0.764   0.733
   44       -0.006  -0.024   0.722   0.691
   45       -0.008  -0.025   0.708   0.674
   46       -0.003  -0.012   0.579   0.564
   47       -0.005  -0.025   0.726   0.696
   48       -0.006  -0.024   0.726   0.696
   49       -0.008  -0.025   0.708   0.674
   50       -0.003  -0.012   0.580   0.564
   51       -0.005  -0.025   0.726   0.696
   52       -0.006  -0.021   0.598   0.571
   53       -0.002  -0.025   0.750   0.723
   54       -0.011  -0.016   0.797   0.771
   55       -0.005  -0.025   0.719   0.690
   56       -0.007  -0.025   0.734   0.703
   57       -0.008  -0.025   0.705   0.672
   58       -0.003  -0.013   0.608   0.592
   59       -0.006  -0.025   0.730   0.700
   60       -0.006  -0.021   0.592   0.565
   61       -0.001  -0.025   0.744   0.718
   62       -0.011  -0.016   0.787   0.760
   63       -0.006  -0.025   0.730   0.700
   64       -0.006  -0.024   0.736   0.705
   65        0.002   0.121   0.000   0.123
   66        0.002   0.120   0.000   0.123
   67        0.002   0.123   0.000   0.126
   68        0.002   0.128   0.000   0.131
   69        0.012   0.150   0.000   0.162
   70        0.001   0.034   0.000   0.035
   71        0.001   0.001   0.000   0.002
--------------------------------------------------
tot         -0.351  -0.707  44.832  43.774
 

 total amount of memory used by VASP MPI-rank0   116832. kBytes
=======================================================================

   base      :      30000. kBytes
   nonlr-proj:      12633. kBytes
   fftplans  :       6402. kBytes
   grid      :      17692. kBytes
   one-center:         93. kBytes
   wavefun   :      50012. kBytes
 
  
  
 General timing and accounting informations for this job:
 ========================================================
  
                  Total CPU time used (sec):     3392.812
                            User time (sec):     3251.562
                          System time (sec):      141.251
                         Elapsed time (sec):     3447.778
  
                   Maximum memory used (kb):      357536.
                   Average memory used (kb):           0.
  
                          Minor page faults:     26931922
                          Major page faults:            0
                 Voluntary context switches:         4487
