SQS-NiFe                                
           1
     9.967380    0.000000    0.000000
    -4.983690    8.632004    0.000000
     0.000000    0.000000   21.103750
   Ni   O    H 
  64   6   1
Direct configuration=     1
   0.11283300  0.22566700  0.09477000
   0.10838620  0.22761046  0.38255953
   0.19616700  0.14233300  0.19117800
   0.02942713  0.05903642  0.28479952
   0.36283300  0.22566700  0.09477000
   0.35882167  0.22363862  0.38696659
   0.44616700  0.14233300  0.19117800
   0.27955673  0.06019954  0.28564471
   0.61283300  0.22566700  0.09477000
   0.61334159  0.22517104  0.38297786
   0.69616700  0.14233300  0.19117800
   0.53025881  0.05995241  0.28521464
   0.86283300  0.22566700  0.09477000
   0.86759088  0.22781710  0.38286399
   0.94616700  0.14233300  0.19117800
   0.77930357  0.05921004  0.28498079
   0.11283300  0.47566700  0.09477000
   0.11122823  0.47281972  0.38277175
   0.19616700  0.39233300  0.19117800
   0.02925651  0.30921493  0.28660669
   0.36283300  0.47566700  0.09477000
   0.36151184  0.47700982  0.37688541
   0.44616700  0.39233300  0.19117800
   0.27963526  0.30802239  0.28589174
   0.61283300  0.47566700  0.09477000
   0.61489300  0.47971877  0.38697814
   0.69616700  0.39233300  0.19117800
   0.52890508  0.30962003  0.28716186
   0.86283300  0.47566700  0.09477000
   0.86583678  0.47730496  0.37642759
   0.94616700  0.39233300  0.19117800
   0.77856025  0.30824882  0.28521430
   0.11283300  0.72566700  0.09477000
   0.11146836  0.72705252  0.38266406
   0.19616700  0.64233300  0.19117800
   0.02970572  0.55910198  0.28454386
   0.36283300  0.72566700  0.09477000
   0.36571143  0.72730455  0.38276892
   0.44616700  0.64233300  0.19117800
   0.27943834  0.55906940  0.28461484
   0.61283300  0.72566700  0.09477000
   0.61090707  0.73015433  0.38255817
   0.69616700  0.64233300  0.19117800
   0.53048257  0.55887216  0.28589447
   0.86283300  0.72566700  0.09477000
   0.86893003  0.72995562  0.38240027
   0.94616700  0.64233300  0.19117800
   0.77831254  0.55895353  0.28564596
   0.11283300  0.97566700  0.09477000
   0.10857538  0.96960295  0.38240510
   0.19616700  0.89233300  0.19117800
   0.02971496  0.80879539  0.28636236
   0.36283300  0.97566700  0.09477000
   0.36121218  0.97268349  0.37643223
   0.44616700  0.89233300  0.19117800
   0.27940598  0.80880691  0.28454405
   0.61283300  0.97566700  0.09477000
   0.61071095  0.97093814  0.38286876
   0.69616700  0.89233300  0.19117800
   0.52929752  0.80926082  0.28660624
   0.86283300  0.97566700  0.09477000
   0.86244406  0.97607641  0.37747741
   0.94616700  0.89233300  0.19117800
   0.77946726  0.80907905  0.28479848
   0.18023601  0.13444969  0.43600692
   0.70409524  0.65833801  0.43599820
   0.19622941  0.64234397  0.43541694
   0.70066208  0.13788371  0.43668705
   0.53300267  0.30545974  0.44653566
   0.55290427  0.28506774  0.51661077
   0.61071797  0.22886435  0.51249954
Direct configuration=     2
   0.11283300  0.22566700  0.09477000
   0.10839827  0.22762546  0.38247963
   0.19616700  0.14233300  0.19117800
   0.02947410  0.05906500  0.28473500
   0.36283300  0.22566700  0.09477000
   0.35902562  0.22376533  0.38685908
   0.44616700  0.14233300  0.19117800
   0.27951597  0.06019290  0.28560668
   0.61283300  0.22566700  0.09477000
   0.61327551  0.22523762  0.38285240
   0.69616700  0.14233300  0.19117800
   0.53032861  0.06000182  0.28521483
   0.86283300  0.22566700  0.09477000
   0.86757071  0.22777636  0.38278605
   0.94616700  0.14233300  0.19117800
   0.77929070  0.05922130  0.28491812
   0.11283300  0.47566700  0.09477000
   0.11116185  0.47267158  0.38270089
   0.19616700  0.39233300  0.19117800
   0.02928116  0.30923841  0.28657866
   0.36283300  0.47566700  0.09477000
   0.36152863  0.47699306  0.37696991
   0.44616700  0.39233300  0.19117800
   0.27957049  0.30798741  0.28586472
   0.61283300  0.47566700  0.09477000
   0.61477074  0.47952059  0.38687094
   0.69616700  0.39233300  0.19117800
   0.52893509  0.30958825  0.28722465
   0.86283300  0.47566700  0.09477000
   0.86580507  0.47728122  0.37651578
   0.94616700  0.39233300  0.19117800
   0.77851111  0.30818016  0.28521388
   0.11283300  0.72566700  0.09477000
   0.11139227  0.72712971  0.38260097
   0.19616700  0.64233300  0.19117800
   0.02970069  0.55910781  0.28448924
   0.36283300  0.72566700  0.09477000
   0.36587241  0.72737736  0.38269516
   0.44616700  0.64233300  0.19117800
   0.27944460  0.55906593  0.28458147
   0.61283300  0.72566700  0.09477000
   0.61089213  0.73014100  0.38247614
   0.69616700  0.64233300  0.19117800
   0.53051783  0.55893779  0.28586677
   0.86283300  0.72566700  0.09477000
   0.86890385  0.72994419  0.38233867
   0.94616700  0.64233300  0.19117800
   0.77832073  0.55899464  0.28560799
   0.11283300  0.97566700  0.09477000
   0.10858729  0.96962793  0.38234453
   0.19616700  0.89233300  0.19117800
   0.02972672  0.80878581  0.28633319
   0.36283300  0.97566700  0.09477000
   0.36123702  0.97271672  0.37651992
   0.44616700  0.89233300  0.19117800
   0.27940205  0.80881244  0.28448962
   0.61283300  0.97566700  0.09477000
   0.61075318  0.97096339  0.38279143
   0.69616700  0.89233300  0.19117800
   0.52927370  0.80923668  0.28657760
   0.86283300  0.97566700  0.09477000
   0.86244055  0.97607999  0.37757456
   0.94616700  0.89233300  0.19117800
   0.77944038  0.80903366  0.28473370
   0.18004183  0.13433414  0.43609386
   0.70421314  0.65852694  0.43608385
   0.19621612  0.64235803  0.43548310
   0.70078144  0.13776390  0.43675527
   0.53303782  0.30543105  0.44656911
   0.55284434  0.28514744  0.51656914
   0.61078990  0.22876369  0.51248247
Direct configuration=     3
   0.11283300  0.22566700  0.09477000
   0.10839995  0.22762755  0.38246849
   0.19616700  0.14233300  0.19117800
   0.02948065  0.05906899  0.28472600
   0.36283300  0.22566700  0.09477000
   0.35905407  0.22378300  0.38684408
   0.44616700  0.14233300  0.19117800
   0.27951028  0.06019197  0.28560137
   0.61283300  0.22566700  0.09477000
   0.61326630  0.22524690  0.38283489
   0.69616700  0.14233300  0.19117800
   0.53033835  0.06000872  0.28521486
   0.86283300  0.22566700  0.09477000
   0.86756789  0.22777068  0.38277518
   0.94616700  0.14233300  0.19117800
   0.77928890  0.05922287  0.28490938
   0.11283300  0.47566700  0.09477000
   0.11115259  0.47265091  0.38269100
   0.19616700  0.39233300  0.19117800
   0.02928460  0.30924169  0.28657475
   0.36283300  0.47566700  0.09477000
   0.36153097  0.47699072  0.37698170
   0.44616700  0.39233300  0.19117800
   0.27956145  0.30798253  0.28586095
   0.61283300  0.47566700  0.09477000
   0.61475368  0.47949295  0.38685598
   0.69616700  0.39233300  0.19117800
   0.52893928  0.30958382  0.28723341
   0.86283300  0.47566700  0.09477000
   0.86580064  0.47727790  0.37652808
   0.94616700  0.39233300  0.19117800
   0.77850426  0.30817058  0.28521383
   0.11283300  0.72566700  0.09477000
   0.11138166  0.72714048  0.38259216
   0.19616700  0.64233300  0.19117800
   0.02969998  0.55910863  0.28448162
   0.36283300  0.72566700  0.09477000
   0.36589487  0.72738752  0.38268487
   0.44616700  0.64233300  0.19117800
   0.27944547  0.55906544  0.28457681
   0.61283300  0.72566700  0.09477000
   0.61089005  0.73013914  0.38246470
   0.69616700  0.64233300  0.19117800
   0.53052275  0.55894695  0.28586291
   0.86283300  0.72566700  0.09477000
   0.86890019  0.72994259  0.38233008
   0.94616700  0.64233300  0.19117800
   0.77832188  0.55900037  0.28560270
   0.11283300  0.97566700  0.09477000
   0.10858896  0.96963142  0.38233608
   0.19616700  0.89233300  0.19117800
   0.02972836  0.80878447  0.28632913
   0.36283300  0.97566700  0.09477000
   0.36124049  0.97272135  0.37653215
   0.44616700  0.89233300  0.19117800
   0.27940150  0.80881321  0.28448203
   0.61283300  0.97566700  0.09477000
   0.61075907  0.97096691  0.38278064
   0.69616700  0.89233300  0.19117800
   0.52927037  0.80923331  0.28657361
   0.86283300  0.97566700  0.09477000
   0.86244006  0.97608048  0.37758811
   0.94616700  0.89233300  0.19117800
   0.77943663  0.80902733  0.28472466
   0.18001473  0.13431802  0.43610599
   0.70422959  0.65855330  0.43609580
   0.19621427  0.64235999  0.43549234
   0.70079809  0.13774718  0.43676479
   0.53304272  0.30542705  0.44657377
   0.55283598  0.28515856  0.51656333
   0.61079994  0.22874965  0.51248009
Direct configuration=     4
   0.11283300  0.22566700  0.09477000
   0.10846577  0.22758173  0.38240207
   0.19616700  0.14233300  0.19117800
   0.02949084  0.05907658  0.28466734
   0.36283300  0.22566700  0.09477000
   0.35908248  0.22382486  0.38675652
   0.44616700  0.14233300  0.19117800
   0.27948633  0.06017612  0.28556844
   0.61283300  0.22566700  0.09477000
   0.61327721  0.22523797  0.38274456
   0.69616700  0.14233300  0.19117800
   0.53037571  0.06003382  0.28521428
   0.86283300  0.22566700  0.09477000
   0.86747755  0.22769096  0.38270075
   0.94616700  0.14233300  0.19117800
   0.77929656  0.05921393  0.28484925
   0.11283300  0.47566700  0.09477000
   0.11115567  0.47264715  0.38264262
   0.19616700  0.39233300  0.19117800
   0.02930159  0.30926341  0.28652757
   0.36283300  0.47566700  0.09477000
   0.36154354  0.47697884  0.37706104
   0.44616700  0.39233300  0.19117800
   0.27952172  0.30797495  0.28583682
   0.61283300  0.47566700  0.09477000
   0.61471585  0.47946921  0.38676762
   0.69616700  0.39233300  0.19117800
   0.52895747  0.30956470  0.28727338
   0.86283300  0.47566700  0.09477000
   0.86578070  0.47726200  0.37660957
   0.94616700  0.39233300  0.19117800
   0.77847977  0.30813455  0.28521289
   0.11283300  0.72566700  0.09477000
   0.11137073  0.72715350  0.38254803
   0.19616700  0.64233300  0.19117800
   0.02966843  0.55909902  0.28443721
   0.36283300  0.72566700  0.09477000
   0.36591032  0.72739122  0.38263384
   0.44616700  0.64233300  0.19117800
   0.27946002  0.55905376  0.28455003
   0.61283300  0.72566700  0.09477000
   0.61093894  0.73007246  0.38239624
   0.69616700  0.64233300  0.19117800
   0.53053131  0.55898766  0.28583804
   0.86283300  0.72566700  0.09477000
   0.86878308  0.72988919  0.38227592
   0.94616700  0.64233300  0.19117800
   0.77833947  0.55902497  0.28556983
   0.11283300  0.97566700  0.09477000
   0.10864390  0.96974911  0.38228365
   0.19616700  0.89233300  0.19117800
   0.02973686  0.80877893  0.28628464
   0.36283300  0.97566700  0.09477000
   0.36125765  0.97274351  0.37661322
   0.44616700  0.89233300  0.19117800
   0.27941340  0.80884592  0.28443768
   0.61283300  0.97566700  0.09477000
   0.61083939  0.97105868  0.38270540
   0.69616700  0.89233300  0.19117800
   0.52924964  0.80921763  0.28652538
   0.86283300  0.97566700  0.09477000
   0.86244118  0.97607956  0.37767669
   0.94616700  0.89233300  0.19117800
   0.77943128  0.80901890  0.28466550
   0.17984673  0.13423165  0.43611749
   0.70432096  0.65871421  0.43610661
   0.19620748  0.64237700  0.43545934
   0.70091103  0.13763254  0.43678111
   0.53308428  0.30538964  0.44660722
   0.55304743  0.28497702  0.51648554
   0.61062234  0.22888090  0.51248024
Direct configuration=     5
   0.11283300  0.22566700  0.09477000
   0.10842160  0.22761248  0.38244665
   0.19616700  0.14233300  0.19117800
   0.02948400  0.05907148  0.28470671
   0.36283300  0.22566700  0.09477000
   0.35906341  0.22379677  0.38681529
   0.44616700  0.14233300  0.19117800
   0.27950240  0.06018676  0.28559054
   0.61283300  0.22566700  0.09477000
   0.61326988  0.22524397  0.38280519
   0.69616700  0.14233300  0.19117800
   0.53035063  0.06001697  0.28521467
   0.86283300  0.22566700  0.09477000
   0.86753819  0.22774447  0.38275071
   0.94616700  0.14233300  0.19117800
   0.77929142  0.05921993  0.28488961
   0.11283300  0.47566700  0.09477000
   0.11115360  0.47264968  0.38267509
   0.19616700  0.39233300  0.19117800
   0.02929019  0.30924883  0.28655923
   0.36283300  0.47566700  0.09477000
   0.36153510  0.47698682  0.37700779
   0.44616700  0.39233300  0.19117800
   0.27954839  0.30798004  0.28585301
   0.61283300  0.47566700  0.09477000
   0.61474124  0.47948514  0.38682693
   0.69616700  0.39233300  0.19117800
   0.52894526  0.30957753  0.28724655
   0.86283300  0.47566700  0.09477000
   0.86579408  0.47727267  0.37655488
   0.94616700  0.39233300  0.19117800
   0.77849621  0.30815874  0.28521352
   0.11283300  0.72566700  0.09477000
   0.11137807  0.72714476  0.38257765
   0.19616700  0.64233300  0.19117800
   0.02968961  0.55910547  0.28446702
   0.36283300  0.72566700  0.09477000
   0.36589995  0.72738874  0.38266809
   0.44616700  0.64233300  0.19117800
   0.27945026  0.55906160  0.28456800
   0.61283300  0.72566700  0.09477000
   0.61090613  0.73011721  0.38244219
   0.69616700  0.64233300  0.19117800
   0.53052556  0.55896034  0.28585473
   0.86283300  0.72566700  0.09477000
   0.86886168  0.72992503  0.38231227
   0.94616700  0.64233300  0.19117800
   0.77832766  0.55900846  0.28559189
   0.11283300  0.97566700  0.09477000
   0.10860702  0.96967012  0.38231884
   0.19616700  0.89233300  0.19117800
   0.02973116  0.80878265  0.28631450
   0.36283300  0.97566700  0.09477000
   0.36124613  0.97272864  0.37655881
   0.44616700  0.89233300  0.19117800
   0.27940542  0.80882397  0.28446745
   0.61283300  0.97566700  0.09477000
   0.61078548  0.97099709  0.38275590
   0.69616700  0.89233300  0.19117800
   0.52926356  0.80922816  0.28655775
   0.86283300  0.97566700  0.09477000
   0.86244043  0.97608018  0.37761724
   0.94616700  0.89233300  0.19117800
   0.77943487  0.80902456  0.28470521
   0.17995949  0.13428962  0.43610977
   0.70425964  0.65860621  0.43609936
   0.19621204  0.64236558  0.43548149
   0.70083523  0.13770949  0.43677016
   0.53305639  0.30541475  0.44658477
   0.55290551  0.28509886  0.51653775
   0.61074154  0.22879281  0.51248014
