       N       E                     dE             d eps       ncg     rms          rms(c)
DAV:   1     0.414604906213E+04    0.41460E+04   -0.18168E+05 23940   0.206E+03
DAV:   2     0.267774574750E+03   -0.38783E+04   -0.36489E+04 23940   0.438E+02
DAV:   3    -0.307420968420E+03   -0.57520E+03   -0.46676E+03 23940   0.202E+02
DAV:   4    -0.344497080357E+03   -0.37076E+02   -0.35540E+02 25416   0.604E+01
DAV:   5    -0.345047222586E+03   -0.55014E+00   -0.54926E+00 28368   0.720E+00    0.732E+01
RMM:   6    -0.356044959064E+03   -0.10998E+02   -0.50734E+02 26176   0.747E+01    0.965E+01
RMM:   7    -0.367184440431E+03   -0.11139E+02   -0.13027E+02 26117   0.349E+01    0.122E+02
RMM:   8    -0.327669480953E+03    0.39515E+02   -0.53780E+01 25181   0.227E+01    0.798E+01
RMM:   9    -0.308766206078E+03    0.18903E+02   -0.44328E+01 25258   0.201E+01    0.477E+01
RMM:  10    -0.326015538329E+03   -0.17249E+02   -0.25198E+01 25647   0.148E+01    0.718E+01
RMM:  11    -0.303996852284E+03    0.22019E+02   -0.16744E+01 24813   0.131E+01    0.385E+01
RMM:  12    -0.296610943767E+03    0.73859E+01   -0.33344E+00 25155   0.549E+00    0.186E+01
RMM:  13    -0.297731548935E+03   -0.11206E+01   -0.21583E+00 25215   0.406E+00    0.268E+01
RMM:  14    -0.297149472007E+03    0.58208E+00   -0.14741E+00 25090   0.371E+00    0.166E+01
RMM:  15    -0.296873496174E+03    0.27598E+00   -0.67165E-01 25271   0.246E+00    0.134E+01
RMM:  16    -0.297280607806E+03   -0.40711E+00   -0.52110E-01 25074   0.200E+00    0.159E+01
RMM:  17    -0.297239119334E+03    0.41488E-01   -0.81714E-01 24676   0.267E+00    0.115E+01
RMM:  18    -0.297226969335E+03    0.12150E-01   -0.36146E-01 25028   0.172E+00    0.100E+01
RMM:  19    -0.297357972890E+03   -0.13100E+00   -0.22024E-01 25034   0.138E+00    0.797E+00
RMM:  20    -0.297429195608E+03   -0.71223E-01   -0.15798E-01 25092   0.114E+00    0.761E+00
RMM:  21    -0.297588367673E+03   -0.15917E+00   -0.17686E-01 25473   0.116E+00    0.647E+00
RMM:  22    -0.297529467079E+03    0.58901E-01   -0.14954E-01 25316   0.112E+00    0.427E+00
RMM:  23    -0.297625293920E+03   -0.95827E-01   -0.12410E-01 25445   0.991E-01    0.547E+00
RMM:  24    -0.297559150019E+03    0.66144E-01   -0.95668E-02 25344   0.932E-01    0.327E+00
RMM:  25    -0.297615594719E+03   -0.56445E-01   -0.78950E-02 25419   0.814E-01    0.444E+00
RMM:  26    -0.297554256730E+03    0.61338E-01   -0.58068E-02 25110   0.723E-01    0.184E+00
RMM:  27    -0.297558268268E+03   -0.40115E-02   -0.19577E-02 25303   0.410E-01    0.192E+00
RMM:  28    -0.297550829964E+03    0.74383E-02   -0.70814E-03 25276   0.254E-01    0.119E+00
RMM:  29    -0.297551053675E+03   -0.22371E-03   -0.47003E-03 25154   0.200E-01    0.117E+00
RMM:  30    -0.297548386137E+03    0.26675E-02   -0.40495E-03 25248   0.182E-01    0.710E-01
RMM:  31    -0.297547412674E+03    0.97346E-03   -0.17580E-03 25260   0.125E-01    0.458E-01
RMM:  32    -0.297547677208E+03   -0.26453E-03   -0.10542E-03 25181   0.945E-02    0.458E-01
RMM:  33    -0.297547082937E+03    0.59427E-03   -0.70437E-04 24978   0.798E-02    0.246E-01
RMM:  34    -0.297547085028E+03   -0.20912E-05   -0.20765E-04 25323   0.410E-02    0.197E-01
RMM:  35    -0.297546989663E+03    0.95365E-04   -0.11130E-04 25272   0.318E-02    0.112E-01
RMM:  36    -0.297546991440E+03   -0.17778E-05   -0.56201E-05 25307   0.213E-02    0.103E-01
RMM:  37    -0.297546968430E+03    0.23010E-04   -0.30131E-05 25337   0.165E-02    0.475E-02
RMM:  38    -0.297546970454E+03   -0.20241E-05   -0.11168E-05 25270   0.957E-03    0.497E-02
RMM:  39    -0.297546967281E+03    0.31731E-05   -0.66376E-06 23953   0.774E-03    0.284E-02
RMM:  40    -0.297546971339E+03   -0.40575E-05   -0.37969E-06 20401   0.581E-03    0.329E-02
RMM:  41    -0.297546969399E+03    0.19400E-05   -0.30349E-06 17650   0.546E-03    0.175E-02
RMM:  42    -0.297546969200E+03    0.19857E-06   -0.11382E-06 13167   0.329E-03
   1 F= -.29754697E+03 E0= -.29754697E+03  d E =0.000000E+00  mag=    54.8874
