 vasp.5.4.4.18Apr17-6-g9f103f2a35 (build Sep 06 2021 19:49:22) complex          
  
 executed on             LinuxIFC date 2021.12.28  00:24:56
 running on   48 total cores
 distrk:  each k-point on   48 cores,    1 groups
 distr:  one band on NCORES_PER_BAND=  16 cores,    3 groups


--------------------------------------------------------------------------------------------------------


 INCAR:
 POTCAR:    PAW_PBE Ni 02Aug2007                  
 POTCAR:    PAW_PBE Fe 06Sep2000                  

 ----------------------------------------------------------------------------- 
|                                                                             |
|           W    W    AA    RRRRR   N    N  II  N    N   GGGG   !!!           |
|           W    W   A  A   R    R  NN   N  II  NN   N  G    G  !!!           |
|           W    W  A    A  R    R  N N  N  II  N N  N  G       !!!           |
|           W WW W  AAAAAA  RRRRR   N  N N  II  N  N N  G  GGG   !            |
|           WW  WW  A    A  R   R   N   NN  II  N   NN  G    G                |
|           W    W  A    A  R    R  N    N  II  N    N   GGGG   !!!           |
|                                                                             |
|      For optimal performance we recommend to set                            |
|        NCORE= 4 - approx SQRT( number of cores)                             |
|      NCORE specifies how many cores store one orbital (NPAR=cpu/NCORE).     |
|      This setting can  greatly improve the performance of VASP for DFT.     |
|      The default,   NCORE=1            might be grossly inefficient         |
|      on modern multi-core architectures or massively parallel machines.     |
|      Do your own testing !!!!                                               |
|      Unfortunately you need to use the default for GW and RPA calculations. |
|      (for HF NCORE is supported but not extensively tested yet)             |
|                                                                             |
 ----------------------------------------------------------------------------- 

 POTCAR:    PAW_PBE Ni 02Aug2007                  
   VRHFIN =Ni:                                                                  
   LEXCH  = PE                                                                  
   EATOM  =  1077.6739 eV,   79.2068 Ry                                         
                                                                                
   TITEL  = PAW_PBE Ni 02Aug2007                                                
   LULTRA =        F    use ultrasoft PP ?                                      
   IUNSCR =        1    unscreen: 0-lin 1-nonlin 2-no                           
   RPACOR =    2.000    partial core radius                                     
   POMASS =   58.690; ZVAL   =   10.000    mass and valenz                      
   RCORE  =    2.300    outmost cutoff radius                                   
   RWIGS  =    2.430; RWIGS  =    1.286    wigner-seitz radius (au A)           
   ENMAX  =  269.532; ENMIN  =  202.149 eV                                      
   RCLOC  =    1.201    cutoff for local pot                                    
   LCOR   =        T    correct aug charges                                     
   LPAW   =        T    paw PP                                                  
   EAUG   =  544.565                                                            
   DEXC   =    0.000                                                            
   RMAX   =    2.357    core radius for proj-oper                               
   RAUG   =    1.300    factor for augmentation sphere                          
   RDEP   =    2.390    radius for radial grids                                 
   RDEPT  =    1.838    core radius for aug-charge                              
                                                                                
   Atomic configuration                                                         
    9 entries                                                                   
     n  l   j            E        occ.                                          
     1  0  0.50     -8206.4253   2.0000                                         
     2  0  0.50      -976.1748   2.0000                                         
     2  1  1.50      -839.0571   6.0000                                         
     3  0  0.50      -105.9991   2.0000                                         
     3  1  1.50       -66.4603   6.0000                                         
     3  2  2.50        -4.6458   9.0000                                         
     4  0  0.50        -4.4926   1.0000                                         
     4  1  1.50        -4.0817   0.0000                                         
     4  3  2.50        -1.3606   0.0000                                         
   Description                                                                  
     l       E           TYP  RCUT    TYP  RCUT                                 
     2     -4.6457903     23  2.300                                             
     2     -6.0063729     23  2.300                                             
     0     -4.4925590     23  2.300                                             
     0      5.0102601     23  2.300                                             
     1     -2.7211652     23  2.300                                             
     1     16.5183231     23  2.300                                             
  local pseudopotential read in
  partial core-charges read in
  partial kinetic energy density read in
  atomic valenz-charges read in
  non local Contribution for L=           2  read in
    real space projection operators read in
  non local Contribution for L=           2  read in
    real space projection operators read in
  non local Contribution for L=           0  read in
    real space projection operators read in
  non local Contribution for L=           0  read in
    real space projection operators read in
  non local Contribution for L=           1  read in
    real space projection operators read in
  non local Contribution for L=           1  read in
    real space projection operators read in
    PAW grid and wavefunctions read in
 
   number of l-projection  operators is LMAX  =           6
   number of lm-projection operators is LMMAX =          18
 
 POTCAR:    PAW_PBE Fe 06Sep2000                  
   VRHFIN =Fe:  d7 s1                                                           
   LEXCH  = PE                                                                  
   EATOM  =   594.3153 eV,   43.6809 Ry                                         
                                                                                
   TITEL  = PAW_PBE Fe 06Sep2000                                                
   LULTRA =        F    use ultrasoft PP ?                                      
   IUNSCR =        1    unscreen: 0-lin 1-nonlin 2-no                           
   RPACOR =    2.000    partial core radius                                     
   POMASS =   55.847; ZVAL   =    8.000    mass and valenz                      
   RCORE  =    2.300    outmost cutoff radius                                   
   RWIGS  =    2.460; RWIGS  =    1.302    wigner-seitz radius (au A)           
   ENMAX  =  267.882; ENMIN  =  200.911 eV                                      
   RCLOC  =    1.701    cutoff for local pot                                    
   LCOR   =        T    correct aug charges                                     
   LPAW   =        T    paw PP                                                  
   EAUG   =  511.368                                                            
   DEXC   =    0.000                                                            
   RMAX   =    2.356    core radius for proj-oper                               
   RAUG   =    1.300    factor for augmentation sphere                          
   RDEP   =    2.442    radius for radial grids                                 
   RDEPT  =    1.890    core radius for aug-charge                              
                                                                                
   Atomic configuration                                                         
    9 entries                                                                   
     n  l   j            E        occ.                                          
     1  0  0.50     -6993.8440   2.0000                                         
     2  0  0.50      -814.6047   2.0000                                         
     2  1  1.50      -693.3689   6.0000                                         
     3  0  0.50       -89.4732   2.0000                                         
     3  1  1.50       -55.6373   6.0000                                         
     3  2  2.50        -3.8151   7.0000                                         
     4  0  0.50        -4.2551   1.0000                                         
     4  1  1.50        -3.4015   0.0000                                         
     4  3  2.50        -1.3606   0.0000                                         
   Description                                                                  
     l       E           TYP  RCUT    TYP  RCUT                                 
     2     -3.8151135     23  2.300                                             
     2     -5.1756961     23  2.300                                             
     0     -4.2550963     23  2.300                                             
     0      7.2035603     23  2.300                                             
     1     -2.7211652     23  2.300                                             
     1     18.4316424     23  2.300                                             
  local pseudopotential read in
  partial core-charges read in
  partial kinetic energy density read in
  atomic valenz-charges read in
  non local Contribution for L=           2  read in
    real space projection operators read in
  non local Contribution for L=           2  read in
    real space projection operators read in
  non local Contribution for L=           0  read in
    real space projection operators read in
  non local Contribution for L=           0  read in
    real space projection operators read in
  non local Contribution for L=           1  read in
    real space projection operators read in
  non local Contribution for L=           1  read in
    real space projection operators read in
    PAW grid and wavefunctions read in
 
   number of l-projection  operators is LMAX  =           6
   number of lm-projection operators is LMMAX =          18
 
 Optimization of the real space projectors (new method)

 maximal supplied QI-value         = 16.25
 optimisation between [QCUT,QGAM] = [ 11.54, 23.24] = [ 37.28,151.24] Ry 
 Optimized for a Real-space Cutoff    1.45 Angstroem

   l    n(q)    QCUT    max X(q) W(low)/X(q) W(high)/X(q)  e(spline) 
   2      9    11.539    60.317    0.19E-03    0.47E-04    0.16E-06
   2      9    11.539    55.921    0.19E-03    0.48E-04    0.16E-06
   0     10    11.539    51.690    0.80E-04    0.50E-04    0.24E-06
   0     10    11.539    30.015    0.73E-04    0.45E-04    0.22E-06
   1     10    11.539    18.849    0.87E-04    0.16E-03    0.71E-07
   1     10    11.539    14.624    0.73E-04    0.13E-03    0.64E-07
 Optimization of the real space projectors (new method)

 maximal supplied QI-value         = 16.25
 optimisation between [QCUT,QGAM] = [ 11.54, 23.24] = [ 37.28,151.24] Ry 
 Optimized for a Real-space Cutoff    1.53 Angstroem

   l    n(q)    QCUT    max X(q) W(low)/X(q) W(high)/X(q)  e(spline) 
   2     10    11.539    80.901    0.11E-03    0.14E-03    0.21E-06
   2     10    11.539    75.754    0.11E-03    0.14E-03    0.22E-06
   0     11    11.539    58.752    0.52E-04    0.18E-04    0.33E-06
   0     11    11.539    30.679    0.44E-04    0.16E-04    0.30E-06
   1     10    11.539    17.977    0.53E-04    0.29E-04    0.13E-06
   1     10    11.539    13.559    0.44E-04    0.25E-04    0.11E-06
  PAW_PBE Ni 02Aug2007                  :
 energy of atom  1       EATOM=-1077.6739
 kinetic energy error for atom=    0.0030 (will be added to EATOM!!)
  PAW_PBE Fe 06Sep2000                  :
 energy of atom  2       EATOM= -594.3153
 kinetic energy error for atom=    0.0026 (will be added to EATOM!!)
 
 
 POSCAR: POSCAR                                  
  positions in direct lattice
  velocities in cartesian coordinates
 exchange correlation table for  LEXCH =        8
   RHO(1)=    0.500       N(1)  =     2000
   RHO(2)=  100.500       N(2)  =     4000
 


--------------------------------------------------------------------------------------------------------


 ion  position               nearest neighbor table
   1  0.001  0.001  0.002-  30 2.49   5 2.50  37 2.50   7 2.50  25 2.50   2 2.50   6 2.50  20 2.50
                            14 2.51   4 2.51  36 2.51  34 2.52
   2  0.250  0.000  0.999-  20 2.50  38 2.50  32 2.50   1 2.50   8 2.50   6 2.51   3 2.51  30 2.51
                            21 2.52  31 2.52   9 2.52  37 2.53
   3  0.499  0.999  0.001-  31 2.49  38 2.49  13 2.50   8 2.50   4 2.50  48 2.51  23 2.51   2 2.51
                            21 2.51  33 2.51  10 2.52  11 2.53
   4  0.749  0.999  0.002-  25 2.50   5 2.50  35 2.50   3 2.50  23 2.50  48 2.51  13 2.51  34 2.51
                            10 2.51   1 2.51  14 2.51  12 2.52
   5  0.999  0.249  0.001-  45 2.46  10 2.50   1 2.50   4 2.50   7 2.51  39 2.51  14 2.51  12 2.51
                            15 2.51   6 2.51  17 2.51  16 2.52
   6  0.250  0.250  1.000-  42 2.49   1 2.50  39 2.50   2 2.51  17 2.51   9 2.51   5 2.51   7 2.52
                            41 2.52   8 2.52  37 2.52  40 2.55
   7  0.083  0.166  0.334-  37 2.47  12 2.50   1 2.50  30 2.50  14 2.50  41 2.50   9 2.50   5 2.51
                            34 2.51  17 2.51  16 2.51   6 2.52
   8  0.501  0.249  0.001-  44 2.47   3 2.50  10 2.50   2 2.50  42 2.50  11 2.51   9 2.51  19 2.51
                            40 2.51   6 2.52  18 2.53  38 2.54
   9  0.333  0.167  0.335-  11 2.50  42 2.50   7 2.50  19 2.51  30 2.51  31 2.51   8 2.51   6 2.51
                            37 2.51  41 2.52   2 2.52  38 2.52
  10  0.751  0.250  0.004-  43 2.48  45 2.48  44 2.48   5 2.50   8 2.50  12 2.50   4 2.51  15 2.52
                            11 2.52   3 2.52  13 2.52  18 2.52
  11  0.582  0.167  0.338-  38 2.48  19 2.49  31 2.50  13 2.50   9 2.50   8 2.51  10 2.52  48 2.52
                            44 2.52  43 2.52  12 2.53   3 2.53
  12  0.834  0.167  0.337-  16 2.49  45 2.49  14 2.49  34 2.49   7 2.50  10 2.50  13 2.51   5 2.51
                            48 2.51   4 2.52  43 2.53  11 2.53
  13  0.666  0.083  0.669-  45 2.47  38 2.48  44 2.49  11 2.50   3 2.50  33 2.50  35 2.51  12 2.51
                             4 2.51  48 2.51  10 2.52  14 2.52
  14  0.916  0.082  0.667-  37 2.46  45 2.47  34 2.48  12 2.49  36 2.50  35 2.50   7 2.50   1 2.51
                             5 2.51   4 2.51  17 2.51  13 2.52
  15  0.002  0.500  0.996-  39 2.48  21 2.48  45 2.49   5 2.51  29 2.51  18 2.52  10 2.52  20 2.52
                            43 2.52  16 2.52  22 2.52  46 2.53
  16  0.081  0.416  0.335-  46 2.48  12 2.49  43 2.49  17 2.50  41 2.51  22 2.51   7 2.51   5 2.52
                            15 2.52  24 2.52  39 2.53  45 2.53
  17  0.166  0.334  0.667-  45 2.49  39 2.49  41 2.49  27 2.50  16 2.50  37 2.50   7 2.51   6 2.51
                             5 2.51  14 2.51  42 2.52  46 2.54
  18  0.752  0.502  0.997-  40 2.46  44 2.47  25 2.50  43 2.50  20 2.50  29 2.51  28 2.51  15 2.52
                            10 2.52   8 2.53  19 2.54  47 2.54
  19  0.584  0.416  0.335-  11 2.49  40 2.49  47 2.49  43 2.50   9 2.51  42 2.51   8 2.51  26 2.51
                            28 2.52  41 2.53  18 2.54  44 2.54
  20  0.001  0.751  0.997-  36 2.49   2 2.50  21 2.50  32 2.50  18 2.50   1 2.50  25 2.50  22 2.51
                            30 2.51  28 2.52  15 2.52  29 2.52
  21  0.249  0.749  0.997-  15 2.48  33 2.50  20 2.50  24 2.50  39 2.50  46 2.50  22 2.51   3 2.51
                            32 2.51  23 2.51   2 2.52  31 2.53
  22  0.084  0.668  0.331-  46 2.47  29 2.50  30 2.50  28 2.50  24 2.50  31 2.50  20 2.51  43 2.51
                            21 2.51  32 2.51  16 2.51  15 2.52
  23  0.500  0.749  0.997-  35 2.49  33 2.49  26 2.50  24 2.50   4 2.50  40 2.51   3 2.51  21 2.51
                            25 2.51  39 2.51  27 2.51  48 2.53
  24  0.333  0.667  0.330-  46 2.47  31 2.50  41 2.50  21 2.50  22 2.50  39 2.50  48 2.50  23 2.50
                            26 2.51  27 2.52  33 2.52  16 2.52
  25  0.751  0.751  1.000-  40 2.47  28 2.50  36 2.50   4 2.50  18 2.50  26 2.50   1 2.50  20 2.50
                            35 2.50  23 2.51  47 2.52  34 2.52
  26  0.583  0.667  0.330-  40 2.47  47 2.47  27 2.50  25 2.50  23 2.50  48 2.50  34 2.51  24 2.51
                            28 2.51  41 2.51  19 2.51  35 2.53
  27  0.417  0.582  0.663-  41 2.47  17 2.50  26 2.50  47 2.50  33 2.51  42 2.51  35 2.51  46 2.51
                            23 2.51  24 2.52  39 2.53  40 2.55
  28  0.834  0.668  0.332-  47 2.47  25 2.50  30 2.50  43 2.50  29 2.50  22 2.50  34 2.51  18 2.51
                            36 2.51  26 2.51  20 2.52  19 2.52
  29  0.917  0.583  0.663-  43 2.49  22 2.50  28 2.50  46 2.50  18 2.51  36 2.51  44 2.51  47 2.51
                            15 2.51  32 2.51  20 2.52  45 2.56
  30  0.083  0.917  0.333-  37 2.49   1 2.49  32 2.49  28 2.50  22 2.50   7 2.50   9 2.51  36 2.51
                            20 2.51   2 2.51  34 2.51  31 2.52
  31  0.334  0.917  0.333-  38 2.48   3 2.49  11 2.50  48 2.50  24 2.50  32 2.50  22 2.50   9 2.51
                            33 2.51   2 2.52  30 2.52  21 2.53
  32  0.167  0.835  0.665-  38 2.47  46 2.49  36 2.49  30 2.49  20 2.50  31 2.50  37 2.50   2 2.50
                            22 2.51  21 2.51  29 2.51  33 2.53
  33  0.417  0.832  0.667-  46 2.47  38 2.47  23 2.49  35 2.49  21 2.50  48 2.50  13 2.50  27 2.51
                             3 2.51  31 2.51  24 2.52  32 2.53
  34  0.832  0.917  0.337-  14 2.48  35 2.49  12 2.49  48 2.50  36 2.50   7 2.51  26 2.51   4 2.51
                            28 2.51  30 2.51  25 2.52   1 2.52
  35  0.666  0.833  0.668-  47 2.47  23 2.49  33 2.49  34 2.49  14 2.50   4 2.50  48 2.50  25 2.50
                            13 2.51  27 2.51  36 2.52  26 2.53
  36  0.917  0.833  0.667-  47 2.46  37 2.47  20 2.49  32 2.49  25 2.50  14 2.50  34 2.50  29 2.51
                            30 2.51  28 2.51   1 2.51  35 2.52
  37  0.162  0.082  0.665-  14 2.46   7 2.47  36 2.47  30 2.49   1 2.50  32 2.50  17 2.50   9 2.51
                             6 2.52  42 2.53   2 2.53  38 2.57
  38  0.416  0.078  0.666-  32 2.47  33 2.47  31 2.48  13 2.48  11 2.48   3 2.49   2 2.50   9 2.52
                            44 2.54   8 2.54  42 2.54  37 2.57
  39  0.248  0.499  0.999-  15 2.48  17 2.49  21 2.50  24 2.50   6 2.50   5 2.51  41 2.51  23 2.51
                            16 2.53  27 2.53  46 2.55  40 2.57
  40  0.506  0.503  0.002-  18 2.46  26 2.47  25 2.47  19 2.49  23 2.51   8 2.51  42 2.53  47 2.53
                            27 2.55  41 2.55   6 2.55  39 2.57
  41  0.331  0.417  0.335-  27 2.47  17 2.49  24 2.50   7 2.50  16 2.51  39 2.51  26 2.51   6 2.52
                             9 2.52  42 2.53  19 2.53  40 2.55
  42  0.416  0.331  0.669-   6 2.49   9 2.50   8 2.50  19 2.51  27 2.51  44 2.51  17 2.52  40 2.53
                            37 2.53  41 2.53  38 2.54  47 2.56
  43  0.834  0.418  0.330-  10 2.48  16 2.49  29 2.49  19 2.50  28 2.50  18 2.50  22 2.51  15 2.52
                            11 2.52  12 2.53  44 2.56  45 2.59
  44  0.667  0.332  0.675-  18 2.47   8 2.47  10 2.48  13 2.49  45 2.51  29 2.51  42 2.51  11 2.52
                            38 2.54  19 2.54  43 2.56  47 2.57
  45  0.914  0.327  0.674-   5 2.46  14 2.47  13 2.47  10 2.48  17 2.49  15 2.49  12 2.49  44 2.51
                            16 2.53  29 2.56  43 2.59  46 2.59
  46  0.169  0.588  0.658-  33 2.47  22 2.47  24 2.47  16 2.48  32 2.49  29 2.50  21 2.50  27 2.51
                            15 2.53  17 2.54  39 2.55  45 2.59
  47  0.670  0.589  0.660-  36 2.46  35 2.47  28 2.47  26 2.47  19 2.49  27 2.50  29 2.51  25 2.52
                            40 2.53  18 2.54  42 2.56  44 2.57
  48  0.583  0.917  0.335-  34 2.50  33 2.50  31 2.50  35 2.50  24 2.50  26 2.50   4 2.51   3 2.51
                            13 2.51  12 2.51  11 2.52  23 2.53
 

IMPORTANT INFORMATION: All symmetrisations will be switched off!
NOSYMM: (Re-)initialisation of all symmetry stuff for point group C_1.

 
 

Automatic generation of k-mesh.
 generate k-points for:    3    3    4
Space group operators:
 irot       det(A)        alpha          n_x          n_y          n_z        tau_x        tau_y        tau_z
    1     1.000000     0.000000     1.000000     0.000000     0.000000     0.000000     0.000000     0.000000
 
 Subroutine IBZKPT returns following result:
 ===========================================
 
 Found     19 irreducible k-points:
 
 Following reciprocal coordinates:
            Coordinates               Weight
  0.000000  0.000000  0.000000      1.000000
  0.333333  0.000000  0.000000      2.000000
  0.000000  0.333333  0.000000      2.000000
  0.333333  0.333333  0.000000      2.000000
 -0.333333  0.333333  0.000000      2.000000
  0.000000  0.000000  0.250000      2.000000
  0.333333  0.000000  0.250000      2.000000
 -0.333333  0.000000  0.250000      2.000000
  0.000000  0.333333  0.250000      2.000000
  0.333333  0.333333  0.250000      2.000000
 -0.333333  0.333333  0.250000      2.000000
  0.000000 -0.333333  0.250000      2.000000
  0.333333 -0.333333  0.250000      2.000000
 -0.333333 -0.333333  0.250000      2.000000
  0.000000  0.000000  0.500000      1.000000
  0.333333  0.000000  0.500000      2.000000
  0.000000  0.333333  0.500000      2.000000
  0.333333  0.333333  0.500000      2.000000
 -0.333333  0.333333  0.500000      2.000000
 
 Following cartesian coordinates:
            Coordinates               Weight
  0.000000  0.000000 -0.000000      1.000000
  0.111111 -0.055556 -0.055556      2.000000
  0.055556  0.055556 -0.111111      2.000000
  0.166667  0.000000 -0.166667      2.000000
 -0.055556  0.111111 -0.055556      2.000000
  0.083333  0.083333  0.083333      2.000000
  0.194444  0.027778  0.027778      2.000000
 -0.027778  0.138889  0.138889      2.000000
  0.138889  0.138889 -0.027778      2.000000
  0.250000  0.083333 -0.083333      2.000000
  0.027778  0.194444  0.027778      2.000000
  0.027778  0.027778  0.194444      2.000000
  0.138889 -0.027778  0.138889      2.000000
 -0.083333  0.083333  0.250000      2.000000
  0.166667  0.166667  0.166667      1.000000
  0.277778  0.111111  0.111111      2.000000
  0.222222  0.222222  0.055556      2.000000
  0.333333  0.166667 -0.000000      2.000000
  0.111111  0.277778  0.111111      2.000000
 
 TETIRR: Found    106 inequivalent tetrahedra from      216


--------------------------------------------------------------------------------------------------------




 Dimension of arrays:
   k-points           NKPTS =     19   k-points in BZ     NKDIM =     19   number of bands    NBANDS=    315
   number of dos      NEDOS =    301   number of ions     NIONS =     48
   non local maximal  LDIM  =      6   non local SUM 2l+1 LMDIM =     18
   total plane-waves  NPLWV = 307200
   max r-space proj   IRMAX =   8735   max aug-charges    IRDMAX=  20667
   dimension x,y,z NGX =    80 NGY =   80 NGZ =   48
   dimension x,y,z NGXF=   160 NGYF=  160 NGZF=   96
   support grid    NGXF=   160 NGYF=  160 NGZF=   96
   ions per type =              36  12
   NGX,Y,Z   is equivalent  to a cutoff of  13.26, 13.26, 13.00 a.u.
   NGXF,Y,Z  is equivalent  to a cutoff of  26.53, 26.53, 25.99 a.u.

 SYSTEM =  SQS-NiFe                                
 POSCAR =  POSCAR                                  

 Startparameter for this run:
   NWRITE =      2    write-flag & timer
   PREC   = accura    normal or accurate (medium, high low for compatibility)
   ISTART =      0    job   : 0-new  1-cont  2-samecut
   ICHARG =      2    charge: 1-file 2-atom 10-const
   ISPIN  =      2    spin polarized calculation?
   LNONCOLLINEAR =      F non collinear calculations
   LSORBIT =      F    spin-orbit coupling
   INIWAV =      1    electr: 0-lowe 1-rand  2-diag
   LASPH  =      F    aspherical Exc in radial PAW
   METAGGA=      F    non-selfconsistent MetaGGA calc.

 Electronic Relaxation 1
   ENCUT  =  520.0 eV  38.22 Ry    6.18 a.u.  18.64 18.64 11.42*2*pi/ulx,y,z
   ENINI  =  520.0     initial cutoff
   ENAUG  =  544.6 eV  augmentation charge cutoff
   NELM   =    200;   NELMIN=  2; NELMDL= -5     # of ELM steps 
   EDIFF  = 0.1E-05   stopping-criterion for ELM
   LREAL  =      T    real-space projection
   NLSPLINE    = F    spline interpolate recip. space projectors
   LCOMPAT=      F    compatible to vasp.4.4
   GGA_COMPAT  = T    GGA compatible to vasp.4.4-vasp.4.6
   LMAXPAW     = -100 max onsite density
   LMAXMIX     =    2 max onsite mixed and CHGCAR
   VOSKOWN=      0    Vosko Wilk Nusair interpolation
   ROPT   =   -0.00025  -0.00025
 Ionic relaxation
   EDIFFG = -.2E-01   stopping-criterion for IOM
   NSW    =      0    number of steps for IOM
   NBLOCK =      1;   KBLOCK =      1    inner block; outer block 
   IBRION =     -1    ionic relax: 0-MD 1-quasi-New 2-CG
   NFREE  =      0    steps in history (QN), initial steepest desc. (CG)
   ISIF   =      2    stress and relaxation
   IWAVPR =     10    prediction:  0-non 1-charg 2-wave 3-comb
   ISYM   =      0    0-nonsym 1-usesym 2-fastsym
   LCORR  =      T    Harris-Foulkes like correction to forces

   POTIM  = 0.5000    time-step for ionic-motion
   TEIN   =    0.0    initial temperature
   TEBEG  =    0.0;   TEEND  =   0.0 temperature during run
   SMASS  =  -3.00    Nose mass-parameter (am)
   estimated Nose-frequenzy (Omega)   =  0.10E-29 period in steps =****** mass=  -0.230E-26a.u.
   SCALEE = 1.0000    scale energy and forces
   NPACO  =    256;   APACO  = 16.0  distance and # of slots for P.C.
   PSTRESS=    0.0 pullay stress

  Mass of Ions in am
   POMASS =  58.69 55.85
  Ionic Valenz
   ZVAL   =  10.00  8.00
  Atomic Wigner-Seitz radii
   RWIGS  =  -1.00 -1.00
  virtual crystal weights 
   VCA    =   1.00  1.00
   NELECT =     456.0000    total number of electrons
   NUPDOWN=      -1.0000    fix difference up-down

 DOS related values:
   EMIN   =  10.00;   EMAX   =-10.00  energy-range for DOS
   EFERMI =   0.00
   ISMEAR =    -5;   SIGMA  =   0.20  broadening in eV -4-tet -1-fermi 0-gaus

 Electronic relaxation 2 (details)
   IALGO  =     68    algorithm
   LDIAG  =      T    sub-space diagonalisation (order eigenvalues)
   LSUBROT=      F    optimize rotation matrix (better conditioning)
   TURBO    =      0    0=normal 1=particle mesh
   IRESTART =      0    0=no restart 2=restart with 2 vectors
   NREBOOT  =      0    no. of reboots
   NMIN     =      0    reboot dimension
   EREF     =   0.00    reference energy to select bands
   IMIX   =      4    mixing-type and parameters
     AMIX     =   0.40;   BMIX     =  1.00
     AMIX_MAG =   1.60;   BMIX_MAG =  1.00
     AMIN     =   0.10
     WC   =   100.;   INIMIX=   1;  MIXPRE=   1;  MAXMIX= -45

 Intra band minimization:
   WEIMIN = 0.0000     energy-eigenvalue tresh-hold
   EBREAK =  0.79E-09  absolut break condition
   DEPER  =   0.30     relativ break condition  

   TIME   =   0.40     timestep for ELM

  volume/ion in A,a.u.               =      11.14        75.16
  Fermi-wavevector in a.u.,A,eV,Ry     =   1.552577  2.933945 32.796776  2.410495
  Thomas-Fermi vector in A             =   2.656932
 
 Write flags
   LWAVE        =      F    write WAVECAR
   LDOWNSAMPLE  =      F    k-point downsampling of WAVECAR
   LCHARG       =      T    write CHGCAR
   LVTOT        =      F    write LOCPOT, total local potential
   LVHAR        =      F    write LOCPOT, Hartree potential only
   LELF         =      F    write electronic localiz. function (ELF)
   LORBIT       =     11    0 simple, 1 ext, 2 COOP (PROOUT), +10 PAW based schemes


 Dipole corrections
   LMONO  =      F    monopole corrections only (constant potential shift)
   LDIPOL =      F    correct potential (dipole corrections)
   IDIPOL =      0    1-x, 2-y, 3-z, 4-all directions 
   EPSILON=  1.0000000 bulk dielectric constant

 Exchange correlation treatment:
   GGA     =    --    GGA type
   LEXCH   =     8    internal setting for exchange type
   VOSKOWN=      0    Vosko Wilk Nusair interpolation
   LHFCALC =     F    Hartree Fock is set to
   LHFONE  =     F    Hartree Fock one center treatment
   AEXX    =    0.0000 exact exchange contribution

 Linear response parameters
   LEPSILON=     F    determine dielectric tensor
   LRPA    =     F    only Hartree local field effects (RPA)
   LNABLA  =     F    use nabla operator in PAW spheres
   LVEL    =     F    velocity operator in full k-point grid
   LINTERFAST=   F  fast interpolation
   KINTER  =     0    interpolate to denser k-point grid
   CSHIFT  =0.1000    complex shift for real part using Kramers Kronig
   OMEGAMAX=  -1.0    maximum frequency
   DEG_THRESHOLD= 0.2000000E-02 threshold for treating states as degnerate
   RTIME   =   -0.100 relaxation time in fs
  (WPLASMAI=    0.000 imaginary part of plasma frequency in eV, 0.658/RTIME)
   DFIELD  = 0.0000000 0.0000000 0.0000000 field for delta impulse in time
 
 Orbital magnetization related:
   ORBITALMAG=     F  switch on orbital magnetization
   LCHIMAG   =     F  perturbation theory with respect to B field
   DQ        =  0.001000  dq finite difference perturbation B field
   LLRAUG    =     F  two centre corrections for induced B field



--------------------------------------------------------------------------------------------------------


 Static calculation
 charge density and potential will be updated during run
 spin polarized calculation
 RMM-DIIS sequential band-by-band and
  variant of blocked Davidson during initial phase
 perform sub-space diagonalisation
    before iterative eigenvector-optimisation
 modified Broyden-mixing scheme, WC =      100.0
 initial mixing is a Kerker type mixing with AMIX =  0.4000 and BMIX =      1.0000
 Hartree-type preconditioning will be used
 using additional bands           87
 real space projection scheme for non local part
 use partial core corrections
 calculate Harris-corrections to forces 
   (improved forces if not selfconsistent)
 use gradient corrections 
 use of overlap-Matrix (Vanderbilt PP)
 Fermi weights with tetrahedron method with Bloechl corrections


--------------------------------------------------------------------------------------------------------


  energy-cutoff  :      520.00
  volume of cell :      534.60
      direct lattice vectors                 reciprocal lattice vectors
     7.090000000 -7.090000000  0.000000000     0.094029149 -0.047014575 -0.047014575
     0.000000000  7.090000000 -7.090000000     0.047014575  0.047014575 -0.094029149
     3.545000000  3.545000000  3.545000000     0.094029149  0.094029149  0.094029149

  length of vectors
    10.026774157 10.026774157  6.140120113     0.115161718  0.115161718  0.162863264


 
 k-points in units of 2pi/SCALE and weight: read from INCAR                         
   0.00000000  0.00000000 -0.00000000       0.028
   0.11111111 -0.05555556 -0.05555556       0.056
   0.05555556  0.05555556 -0.11111111       0.056
   0.16666667  0.00000000 -0.16666667       0.056
  -0.05555556  0.11111111 -0.05555556       0.056
   0.08333333  0.08333333  0.08333333       0.056
   0.19444444  0.02777778  0.02777778       0.056
  -0.02777778  0.13888889  0.13888889       0.056
   0.13888889  0.13888889 -0.02777778       0.056
   0.25000000  0.08333333 -0.08333333       0.056
   0.02777778  0.19444444  0.02777778       0.056
   0.02777778  0.02777778  0.19444444       0.056
   0.13888889 -0.02777778  0.13888889       0.056
  -0.08333333  0.08333333  0.25000000       0.056
   0.16666667  0.16666667  0.16666667       0.028
   0.27777778  0.11111111  0.11111111       0.056
   0.22222222  0.22222222  0.05555556       0.056
   0.33333333  0.16666667 -0.00000000       0.056
   0.11111111  0.27777778  0.11111111       0.056
 
 k-points in reciprocal lattice and weights: read from INCAR                         
   0.00000000  0.00000000  0.00000000       0.028
   0.33333333  0.00000000  0.00000000       0.056
   0.00000000  0.33333333  0.00000000       0.056
   0.33333333  0.33333333  0.00000000       0.056
  -0.33333333  0.33333333  0.00000000       0.056
   0.00000000  0.00000000  0.25000000       0.056
   0.33333333  0.00000000  0.25000000       0.056
  -0.33333333  0.00000000  0.25000000       0.056
   0.00000000  0.33333333  0.25000000       0.056
   0.33333333  0.33333333  0.25000000       0.056
  -0.33333333  0.33333333  0.25000000       0.056
   0.00000000 -0.33333333  0.25000000       0.056
   0.33333333 -0.33333333  0.25000000       0.056
  -0.33333333 -0.33333333  0.25000000       0.056
   0.00000000  0.00000000  0.50000000       0.028
   0.33333333  0.00000000  0.50000000       0.056
   0.00000000  0.33333333  0.50000000       0.056
   0.33333333  0.33333333  0.50000000       0.056
  -0.33333333  0.33333333  0.50000000       0.056
 
 position of ions in fractional coordinates (direct lattice) 
   0.00052915  0.00053012  0.00172073
   0.25001339  0.00028713  0.99876021
   0.49948714  0.99907987  0.00126392
   0.74930184  0.99919313  0.00154605
   0.99864044  0.24850661  0.00118895
   0.25012555  0.25021635  0.99995220
   0.08288236  0.16633207  0.33449007
   0.50064226  0.24891256  0.00149595
   0.33293879  0.16685755  0.33471695
   0.75052539  0.25006154  0.00434867
   0.58230650  0.16720136  0.33803282
   0.83403173  0.16672361  0.33716192
   0.66558135  0.08305528  0.66890668
   0.91639691  0.08203148  0.66706692
   0.00183375  0.50047506  0.99639072
   0.08092228  0.41609737  0.33542622
   0.16611831  0.33395208  0.66715701
   0.75170250  0.50186896  0.99714027
   0.58357301  0.41617229  0.33537684
   0.00109063  0.75115249  0.99740701
   0.24902597  0.74885696  0.99674663
   0.08375785  0.66810354  0.33145583
   0.49972492  0.74917262  0.99726192
   0.33297404  0.66727679  0.33004326
   0.75128304  0.75093635  0.99999624
   0.58298092  0.66668194  0.33046276
   0.41661008  0.58200171  0.66281339
   0.83395904  0.66770620  0.33208286
   0.91708260  0.58323878  0.66273597
   0.08291687  0.91685802  0.33279753
   0.33420554  0.91705372  0.33347287
   0.16670855  0.83524215  0.66470704
   0.41703531  0.83214858  0.66709882
   0.83233101  0.91715006  0.33676761
   0.66623909  0.83336959  0.66807273
   0.91705920  0.83319481  0.66745548
   0.16168539  0.08211531  0.66450213
   0.41607483  0.07807067  0.66611242
   0.24829879  0.49904588  0.99896575
   0.50648054  0.50259484  0.00153479
   0.33134146  0.41714328  0.33483437
   0.41638363  0.33144341  0.66869827
   0.83354808  0.41838968  0.33038754
   0.66732406  0.33240595  0.67502351
   0.91446436  0.32695492  0.67367832
   0.16914153  0.58833391  0.65819269
   0.66961592  0.58928852  0.65951236
   0.58310412  0.91651489  0.33503679
 
 position of ions in cartesian coordinates  (Angst):
   0.00985166  0.00610685  0.00234145
   5.31319987  1.77004576  3.53856922
   3.54584443  3.54659306 -7.07899570
   5.31803082  1.77720998 -7.07879857
   7.08457556 -5.31423401 -1.75769704
   5.31822066  3.54547436  1.77079660
   1.77340324  1.77742571  0.00647293
   3.55485675 -1.77946041 -1.75948690
   3.54710762  0.00905557  0.00355156
   5.33664107 -3.53287263 -1.75752030
   5.32687945 -1.74476908  0.01286872
   7.10852394 -3.53597553  0.01316858
   7.09024592 -1.75883566  1.78241227
   8.86200635 -3.55089871  1.78314904
   3.54520637  7.06757201 -0.01616308
   1.76282492  3.56547734 -1.76104442
   3.54285040  3.55501300 -0.00264865
   8.86443295  1.76354251 -0.02338871
   5.32644353  0.00203980 -1.76175064
   3.54354043  8.85374648 -1.78986332
   5.29906094  7.07726850 -1.77592908
   1.76885408  5.31802186 -3.56184315
   7.07834316  5.30387769 -1.77634034
   3.53078932  3.54020986 -3.56098912
   8.87158341  3.54252870 -1.77915205
   5.30482518  1.76493074 -3.55528447
   5.30343895  3.52230008 -1.77671862
   7.09000330 -0.00149883 -3.55680324
   8.85151465 -0.01755368 -1.78576397
   1.76764786  7.09240999 -5.32075607
   3.55167858  5.31455495 -5.31974953
   3.53835008  7.09628966 -3.56548036
   5.32164566  5.30801843 -3.53506810
   7.09506806  1.79520820 -5.30875276
   7.09195297  3.55327310 -3.54027257
   8.86807945  1.77153118 -3.54122154
   3.50200948  1.79150818  1.77346250
   5.31133905 -0.03508096  1.80784748
   5.30177201  5.31913044  0.00309833
   3.59638785 -0.02210880 -3.55795656
   3.53619878  1.79532277 -1.77055798
   5.32269530  1.76830916  0.02060159
   7.08107969 -1.77224920 -1.79515900
   7.12428597  0.01838892  0.03620017
   8.87174196 -1.77725232  0.07007927
   3.53250653  5.30536706 -1.83799438
   7.08554817  1.76845008 -1.84008433
   5.32191360  3.55158780 -5.31038518
 


--------------------------------------------------------------------------------------------------------


 k-point  1 :   0.0000 0.0000 0.0000  plane waves:   14321
 k-point  2 :   0.3333 0.0000 0.0000  plane waves:   14386
 k-point  3 :   0.0000 0.3333 0.0000  plane waves:   14386
 k-point  4 :   0.3333 0.3333 0.0000  plane waves:   14436
 k-point  5 :  -0.3333 0.3333 0.0000  plane waves:   14386
 k-point  6 :   0.0000 0.0000 0.2500  plane waves:   14375
 k-point  7 :   0.3333 0.0000 0.2500  plane waves:   14400
 k-point  8 :  -0.3333 0.0000 0.2500  plane waves:   14400
 k-point  9 :   0.0000 0.3333 0.2500  plane waves:   14400
 k-point 10 :   0.3333 0.3333 0.2500  plane waves:   14382
 k-point 11 :  -0.3333 0.3333 0.2500  plane waves:   14400
 k-point 12 :   0.0000-0.3333 0.2500  plane waves:   14400
 k-point 13 :   0.3333-0.3333 0.2500  plane waves:   14400
 k-point 14 :  -0.3333-0.3333 0.2500  plane waves:   14382
 k-point 15 :   0.0000 0.0000 0.5000  plane waves:   14494
 k-point 16 :   0.3333 0.0000 0.5000  plane waves:   14364
 k-point 17 :   0.0000 0.3333 0.5000  plane waves:   14364
 k-point 18 :   0.3333 0.3333 0.5000  plane waves:   14310
 k-point 19 :  -0.3333 0.3333 0.5000  plane waves:   14364

 maximum and minimum number of plane-waves per node :       937      862

 maximum number of plane-waves:     14494
 maximum index in each direction: 
   IXMAX=   18   IYMAX=   18   IZMAX=   11
   IXMIN=  -18   IYMIN=  -18   IZMIN=  -11


 real space projection operators:
  total allocation   :      49953.52 KBytes
  max/ min on nodes  :       3132.70       3109.50


 parallel 3D FFT for wavefunctions:
    minimum data exchange during FFTs selected (reduces bandwidth)
 parallel 3D FFT for charge:
    minimum data exchange during FFTs selected (reduces bandwidth)


 total amount of memory used by VASP MPI-rank0   112058. kBytes
=======================================================================

   base      :      30000. kBytes
   nonlr-proj:      10962. kBytes
   fftplans  :       2598. kBytes
   grid      :       6545. kBytes
   one-center:         93. kBytes
   wavefun   :      61860. kBytes
 
     INWAV:  cpu time    0.0000: real time    0.0002
 Broyden mixing: mesh for mixing (old mesh)
   NGX = 37   NGY = 37   NGZ = 23
  (NGX  =160   NGY  =160   NGZ  = 96)
  gives a total of  31487 points

 initial charge density was supplied:
 charge density of overlapping atoms calculated
 number of electron     456.0000000 magnetization      80.0000000
 keeping initial charge density in first step


--------------------------------------------------------------------------------------------------------


 Maximum index for non-local projection operator          613
 Maximum index for augmentation-charges         1154 (set IRDMAX)


--------------------------------------------------------------------------------------------------------


 First call to EWALD:  gamma=   0.218
 Maximum number of real-space cells 3x 3x 3
 Maximum number of reciprocal cells 3x 3x 2

    FEWALD:  cpu time    0.0060: real time    0.0056


--------------------------------------- Iteration      1(   1)  ---------------------------------------


    POTLOK:  cpu time    0.1020: real time    0.1065
    SETDIJ:  cpu time    0.0210: real time    0.0226
     EDDAV:  cpu time   33.2050: real time   33.4642
 BZINTS: Fermi energy: 26.268224;456.000000 electrons
         Band energy:8009.421629;  BLOECHL correction: -0.045888
       DOS:  cpu time    0.1600: real time    0.1610
    --------------------------------------------
      LOOP:  cpu time   33.4879: real time   33.7544

 eigenvalue-minimisations  : 23940
 total energy-change (2. order) : 0.4146049E+04  (-0.1816753E+05)
 number of electron     456.0000000 magnetization      80.0000000
 augmentation part      456.0000000 magnetization      80.0000000

 Free energy of the ion-electron system (eV)
  ---------------------------------------------------
  alpha Z        PSCENC =      2450.32051568
  Ewald energy   TEWEN  =    -40373.24020216
  -Hartree energ DENC   =    -10576.34911779
  -exchange      EXHF   =         0.00000000
  -V(xc)+E(xc)   XCENC  =      1206.47060728
  PAW double counting   =     41303.47856910   -43801.95820618
  entropy T*S    EENTRO =         0.00000000
  eigenvalues    EBANDS =      8009.42162927
  atomic energy  EATOM  =     45927.90526693
  Solvation  Ediel_sol  =         0.00000000
  ---------------------------------------------------
  free energy    TOTEN  =      4146.04906213 eV

  energy without entropy =     4146.04906213  energy(sigma->0) =     4146.04906213


--------------------------------------------------------------------------------------------------------




--------------------------------------- Iteration      1(   2)  ---------------------------------------


     EDDAV:  cpu time   33.4229: real time   33.5217
 BZINTS: Fermi energy: 12.990429;456.000000 electrons
         Band energy:4131.147142;  BLOECHL correction: -0.011230
       DOS:  cpu time    0.1600: real time    0.1596
    --------------------------------------------
      LOOP:  cpu time   33.5829: real time   33.6812

 eigenvalue-minimisations  : 23940
 total energy-change (2. order) :-0.3878274E+04  (-0.3648878E+04)
 number of electron     456.0000000 magnetization      80.0000000
 augmentation part      456.0000000 magnetization      80.0000000

 Free energy of the ion-electron system (eV)
  ---------------------------------------------------
  alpha Z        PSCENC =      2450.32051568
  Ewald energy   TEWEN  =    -40373.24020216
  -Hartree energ DENC   =    -10576.34911779
  -exchange      EXHF   =         0.00000000
  -V(xc)+E(xc)   XCENC  =      1206.47060728
  PAW double counting   =     41303.47856910   -43801.95820618
  entropy T*S    EENTRO =         0.00000000
  eigenvalues    EBANDS =      4131.14714189
  atomic energy  EATOM  =     45927.90526693
  Solvation  Ediel_sol  =         0.00000000
  ---------------------------------------------------
  free energy    TOTEN  =       267.77457475 eV

  energy without entropy =      267.77457475  energy(sigma->0) =      267.77457475


--------------------------------------------------------------------------------------------------------




--------------------------------------- Iteration      1(   3)  ---------------------------------------


     EDDAV:  cpu time   33.1570: real time   33.2111
 BZINTS: Fermi energy: 10.691032;456.000000 electrons
         Band energy:3555.951599;  BLOECHL correction: -0.136142
       DOS:  cpu time    0.1570: real time    0.1569
    --------------------------------------------
      LOOP:  cpu time   33.3139: real time   33.3680

 eigenvalue-minimisations  : 23940
 total energy-change (2. order) :-0.5751955E+03  (-0.4667596E+03)
 number of electron     456.0000000 magnetization      80.0000000
 augmentation part      456.0000000 magnetization      80.0000000

 Free energy of the ion-electron system (eV)
  ---------------------------------------------------
  alpha Z        PSCENC =      2450.32051568
  Ewald energy   TEWEN  =    -40373.24020216
  -Hartree energ DENC   =    -10576.34911779
  -exchange      EXHF   =         0.00000000
  -V(xc)+E(xc)   XCENC  =      1206.47060728
  PAW double counting   =     41303.47856910   -43801.95820618
  entropy T*S    EENTRO =         0.00000000
  eigenvalues    EBANDS =      3555.95159872
  atomic energy  EATOM  =     45927.90526693
  Solvation  Ediel_sol  =         0.00000000
  ---------------------------------------------------
  free energy    TOTEN  =      -307.42096842 eV

  energy without entropy =     -307.42096842  energy(sigma->0) =     -307.42096842


--------------------------------------------------------------------------------------------------------




--------------------------------------- Iteration      1(   4)  ---------------------------------------


     EDDAV:  cpu time   34.6517: real time   34.7386
 BZINTS: Fermi energy: 10.602769;456.000000 electrons
         Band energy:3518.875487;  BLOECHL correction: -0.153118
       DOS:  cpu time    0.1510: real time    0.1507
    --------------------------------------------
      LOOP:  cpu time   34.8027: real time   34.8894

 eigenvalue-minimisations  : 25416
 total energy-change (2. order) :-0.3707611E+02  (-0.3554022E+02)
 number of electron     456.0000000 magnetization      80.0000000
 augmentation part      456.0000000 magnetization      80.0000000

 Free energy of the ion-electron system (eV)
  ---------------------------------------------------
  alpha Z        PSCENC =      2450.32051568
  Ewald energy   TEWEN  =    -40373.24020216
  -Hartree energ DENC   =    -10576.34911779
  -exchange      EXHF   =         0.00000000
  -V(xc)+E(xc)   XCENC  =      1206.47060728
  PAW double counting   =     41303.47856910   -43801.95820618
  entropy T*S    EENTRO =         0.00000000
  eigenvalues    EBANDS =      3518.87548678
  atomic energy  EATOM  =     45927.90526693
  Solvation  Ediel_sol  =         0.00000000
  ---------------------------------------------------
  free energy    TOTEN  =      -344.49708036 eV

  energy without entropy =     -344.49708036  energy(sigma->0) =     -344.49708036


--------------------------------------------------------------------------------------------------------




--------------------------------------- Iteration      1(   5)  ---------------------------------------


     EDDAV:  cpu time   37.5993: real time   37.6478
 BZINTS: Fermi energy: 10.601584;456.000000 electrons
         Band energy:3518.325345;  BLOECHL correction: -0.153025
       DOS:  cpu time    0.1550: real time    0.1553
    CHARGE:  cpu time    0.7489: real time    0.7497
    MIXING:  cpu time    0.0070: real time    0.0071
    --------------------------------------------
      LOOP:  cpu time   38.5101: real time   38.5599

 eigenvalue-minimisations  : 28368
 total energy-change (2. order) :-0.5501422E+00  (-0.5492596E+00)
 number of electron     456.0000050 magnetization      69.6414782
 augmentation part      244.9315929 magnetization      56.4580480

 Broyden mixing:
  rms(total) = 0.73227E+01    rms(broyden)= 0.73226E+01
  rms(prec ) = 0.91630E+01
  weight for this iteration     100.00

 Free energy of the ion-electron system (eV)
  ---------------------------------------------------
  alpha Z        PSCENC =      2450.32051568
  Ewald energy   TEWEN  =    -40373.24020216
  -Hartree energ DENC   =    -10576.34911779
  -exchange      EXHF   =         0.00000000
  -V(xc)+E(xc)   XCENC  =      1206.47060728
  PAW double counting   =     41303.47856910   -43801.95820618
  entropy T*S    EENTRO =         0.00000000
  eigenvalues    EBANDS =      3518.32534456
  atomic energy  EATOM  =     45927.90526693
  Solvation  Ediel_sol  =         0.00000000
  ---------------------------------------------------
  free energy    TOTEN  =      -345.04722259 eV

  energy without entropy =     -345.04722259  energy(sigma->0) =     -345.04722259


--------------------------------------------------------------------------------------------------------




--------------------------------------- Iteration      1(   6)  ---------------------------------------


    POTLOK:  cpu time    0.0880: real time    0.0888
    SETDIJ:  cpu time    0.0150: real time    0.0153
    EDDIAG:  cpu time    5.2812: real time    5.2855
  RMM-DIIS:  cpu time   20.3439: real time   20.4206
    ORTHCH:  cpu time    0.8819: real time    0.8825
 BZINTS: Fermi energy:  7.898111;456.000000 electrons
         Band energy:2265.665264;  BLOECHL correction: -0.024641
       DOS:  cpu time    0.1600: real time    0.1600
    CHARGE:  cpu time    0.7439: real time    0.7445
    MIXING:  cpu time    0.0030: real time    0.0032
    --------------------------------------------
      LOOP:  cpu time   27.5168: real time   27.6005

 eigenvalue-minimisations  : 26176
 total energy-change (2. order) :-0.1099774E+02  (-0.5073447E+02)
 number of electron     456.0000070 magnetization      65.0743875
 augmentation part      284.9528742 magnetization      55.5804605

 Broyden mixing:
  rms(total) = 0.96476E+01    rms(broyden)= 0.96475E+01
  rms(prec ) = 0.14111E+02
  weight for this iteration     100.00

 eigenvalues of (default mixing * dielectric matrix)
  average eigenvalue GAMMA=   0.3019
  0.3019

 Free energy of the ion-electron system (eV)
  ---------------------------------------------------
  alpha Z        PSCENC =      2450.32051568
  Ewald energy   TEWEN  =    -40373.24020216
  -Hartree energ DENC   =     -9468.61588505
  -exchange      EXHF   =         0.00000000
  -V(xc)+E(xc)   XCENC  =      1149.69610919
  PAW double counting   =     44222.74138449   -46530.51741180
  entropy T*S    EENTRO =         0.00000000
  eigenvalues    EBANDS =      2265.66526364
  atomic energy  EATOM  =     45927.90526693
  Solvation  Ediel_sol  =         0.00000000
  ---------------------------------------------------
  free energy    TOTEN  =      -356.04495906 eV

  energy without entropy =     -356.04495906  energy(sigma->0) =     -356.04495906


--------------------------------------------------------------------------------------------------------




--------------------------------------- Iteration      1(   7)  ---------------------------------------


    POTLOK:  cpu time    0.0870: real time    0.0872
    SETDIJ:  cpu time    0.0160: real time    0.0152
    EDDIAG:  cpu time    5.2132: real time    5.2175
  RMM-DIIS:  cpu time   20.3519: real time   20.3832
    ORTHCH:  cpu time    0.9309: real time    0.9313
 BZINTS: Fermi energy:  8.321100;456.000000 electrons
         Band energy:2564.317146;  BLOECHL correction: -0.013323
       DOS:  cpu time    0.1590: real time    0.1592
    CHARGE:  cpu time    0.7479: real time    0.7483
    MIXING:  cpu time    0.0030: real time    0.0018
    --------------------------------------------
      LOOP:  cpu time   27.5088: real time   27.5438

 eigenvalue-minimisations  : 26117
 total energy-change (2. order) :-0.1113948E+02  (-0.1302718E+02)
 number of electron     456.0000044 magnetization      60.6651373
 augmentation part      274.1509403 magnetization      53.6616304

 Broyden mixing:
  rms(total) = 0.12156E+02    rms(broyden)= 0.12155E+02
  rms(prec ) = 0.19474E+02
  weight for this iteration     100.00

 eigenvalues of (default mixing * dielectric matrix)
  average eigenvalue GAMMA=   0.2795
  0.3979  0.1611

 Free energy of the ion-electron system (eV)
  ---------------------------------------------------
  alpha Z        PSCENC =      2450.32051568
  Ewald energy   TEWEN  =    -40373.24020216
  -Hartree energ DENC   =     -9687.23745212
  -exchange      EXHF   =         0.00000000
  -V(xc)+E(xc)   XCENC  =      1158.74816154
  PAW double counting   =     45295.40986456   -47703.40774046
  entropy T*S    EENTRO =         0.00000000
  eigenvalues    EBANDS =      2564.31714560
  atomic energy  EATOM  =     45927.90526693
  Solvation  Ediel_sol  =         0.00000000
  ---------------------------------------------------
  free energy    TOTEN  =      -367.18444043 eV

  energy without entropy =     -367.18444043  energy(sigma->0) =     -367.18444043


--------------------------------------------------------------------------------------------------------




--------------------------------------- Iteration      1(   8)  ---------------------------------------


    POTLOK:  cpu time    0.0860: real time    0.0868
    SETDIJ:  cpu time    0.0150: real time    0.0152
    EDDIAG:  cpu time    5.3112: real time    5.3141
  RMM-DIIS:  cpu time   19.5440: real time   19.5861
    ORTHCH:  cpu time    0.8809: real time    0.8827
 BZINTS: Fermi energy:  8.429199;456.000000 electrons
         Band energy:2654.274410;  BLOECHL correction: -0.047054
       DOS:  cpu time    0.1630: real time    0.1632
    CHARGE:  cpu time    0.7409: real time    0.7410
    MIXING:  cpu time    0.0030: real time    0.0018
    --------------------------------------------
      LOOP:  cpu time   26.7439: real time   26.7911

 eigenvalue-minimisations  : 25181
 total energy-change (2. order) : 0.3951496E+02  (-0.5377971E+01)
 number of electron     456.0000061 magnetization      57.0913957
 augmentation part      273.5437180 magnetization      46.9863711

 Broyden mixing:
  rms(total) = 0.79845E+01    rms(broyden)= 0.79843E+01
  rms(prec ) = 0.12117E+02
  weight for this iteration     100.00

 eigenvalues of (default mixing * dielectric matrix)
  average eigenvalue GAMMA=   0.3492
  0.5882  0.3389  0.1204

 Free energy of the ion-electron system (eV)
  ---------------------------------------------------
  alpha Z        PSCENC =      2450.32051568
  Ewald energy   TEWEN  =    -40373.24020216
  -Hartree energ DENC   =     -9694.74492956
  -exchange      EXHF   =         0.00000000
  -V(xc)+E(xc)   XCENC  =      1156.30602913
  PAW double counting   =     46006.79716449   -48455.28773561
  entropy T*S    EENTRO =         0.00000000
  eigenvalues    EBANDS =      2654.27441015
  atomic energy  EATOM  =     45927.90526693
  Solvation  Ediel_sol  =         0.00000000
  ---------------------------------------------------
  free energy    TOTEN  =      -327.66948095 eV

  energy without entropy =     -327.66948095  energy(sigma->0) =     -327.66948095


--------------------------------------------------------------------------------------------------------




--------------------------------------- Iteration      1(   9)  ---------------------------------------


    POTLOK:  cpu time    0.0860: real time    0.0871
    SETDIJ:  cpu time    0.0160: real time    0.0153
    EDDIAG:  cpu time    5.2342: real time    5.2409
  RMM-DIIS:  cpu time   19.3541: real time   19.3861
    ORTHCH:  cpu time    0.8779: real time    0.8798
 BZINTS: Fermi energy:  8.552681;456.000000 electrons
         Band energy:2751.268365;  BLOECHL correction: -0.041110
       DOS:  cpu time    0.1580: real time    0.1571
    CHARGE:  cpu time    1.1028: real time    1.1090
    MIXING:  cpu time    0.0080: real time    0.0073
    --------------------------------------------
      LOOP:  cpu time   26.8369: real time   26.8826

 eigenvalue-minimisations  : 25258
 total energy-change (2. order) : 0.1890327E+02  (-0.4432805E+01)
 number of electron     456.0000058 magnetization      52.2377700
 augmentation part      271.0856206 magnetization      43.5333921

 Broyden mixing:
  rms(total) = 0.47714E+01    rms(broyden)= 0.47712E+01
  rms(prec ) = 0.78824E+01
  weight for this iteration     100.00

 eigenvalues of (default mixing * dielectric matrix)
  average eigenvalue GAMMA=   0.4606
  0.9370  0.6400  0.1327  0.1327

 Free energy of the ion-electron system (eV)
  ---------------------------------------------------
  alpha Z        PSCENC =      2450.32051568
  Ewald energy   TEWEN  =    -40373.24020216
  -Hartree energ DENC   =     -9729.91117298
  -exchange      EXHF   =         0.00000000
  -V(xc)+E(xc)   XCENC  =      1158.39465420
  PAW double counting   =     46735.64724575   -49229.15087895
  entropy T*S    EENTRO =         0.00000000
  eigenvalues    EBANDS =      2751.26836545
  atomic energy  EATOM  =     45927.90526693
  Solvation  Ediel_sol  =         0.00000000
  ---------------------------------------------------
  free energy    TOTEN  =      -308.76620608 eV

  energy without entropy =     -308.76620608  energy(sigma->0) =     -308.76620608


--------------------------------------------------------------------------------------------------------




--------------------------------------- Iteration      1(  10)  ---------------------------------------


    POTLOK:  cpu time    0.1470: real time    0.1499
    SETDIJ:  cpu time    0.0260: real time    0.0251
    EDDIAG:  cpu time    6.3250: real time    6.3543
  RMM-DIIS:  cpu time   19.6810: real time   19.7410
    ORTHCH:  cpu time    0.9199: real time    0.9218
 BZINTS: Fermi energy:  8.710793;456.000000 electrons
         Band energy:2736.796724;  BLOECHL correction: -0.016254
       DOS:  cpu time    0.1600: real time    0.1596
    CHARGE:  cpu time    0.7679: real time    0.7687
    MIXING:  cpu time    0.0030: real time    0.0020
    --------------------------------------------
      LOOP:  cpu time   28.0297: real time   28.1224

 eigenvalue-minimisations  : 25647
 total energy-change (2. order) :-0.1724933E+02  (-0.2519774E+01)
 number of electron     456.0000060 magnetization      48.4226513
 augmentation part      270.7521869 magnetization      40.6182095

 Broyden mixing:
  rms(total) = 0.71757E+01    rms(broyden)= 0.71756E+01
  rms(prec ) = 0.11496E+02
  weight for this iteration     100.00

 eigenvalues of (default mixing * dielectric matrix)
  average eigenvalue GAMMA=   0.4356
  1.1262  0.6485  0.1551  0.1240  0.1240

 Free energy of the ion-electron system (eV)
  ---------------------------------------------------
  alpha Z        PSCENC =      2450.32051568
  Ewald energy   TEWEN  =    -40373.24020216
  -Hartree energ DENC   =     -9701.16289520
  -exchange      EXHF   =         0.00000000
  -V(xc)+E(xc)   XCENC  =      1156.91416435
  PAW double counting   =     47554.21017138   -50077.75928303
  entropy T*S    EENTRO =         0.00000000
  eigenvalues    EBANDS =      2736.79672372
  atomic energy  EATOM  =     45927.90526693
  Solvation  Ediel_sol  =         0.00000000
  ---------------------------------------------------
  free energy    TOTEN  =      -326.01553833 eV

  energy without entropy =     -326.01553833  energy(sigma->0) =     -326.01553833


--------------------------------------------------------------------------------------------------------




--------------------------------------- Iteration      1(  11)  ---------------------------------------


    POTLOK:  cpu time    0.0860: real time    0.0870
    SETDIJ:  cpu time    0.0160: real time    0.0153
    EDDIAG:  cpu time    5.1802: real time    5.2216
  RMM-DIIS:  cpu time   19.0741: real time   19.1015
    ORTHCH:  cpu time    0.9099: real time    0.9118
 BZINTS: Fermi energy:  8.385823;456.000000 electrons
         Band energy:2764.785382;  BLOECHL correction: -0.070939
       DOS:  cpu time    0.1560: real time    0.1559
    CHARGE:  cpu time    0.7509: real time    0.7507
    MIXING:  cpu time    0.0030: real time    0.0020
    --------------------------------------------
      LOOP:  cpu time   26.1760: real time   26.2458

 eigenvalue-minimisations  : 24813
 total energy-change (2. order) : 0.2201869E+02  (-0.1674434E+01)
 number of electron     456.0000057 magnetization      48.2352240
 augmentation part      271.4253096 magnetization      39.6214634

 Broyden mixing:
  rms(total) = 0.38456E+01    rms(broyden)= 0.38454E+01
  rms(prec ) = 0.63401E+01
  weight for this iteration     100.00

 eigenvalues of (default mixing * dielectric matrix)
  average eigenvalue GAMMA=   0.4051
  1.1982  0.6142  0.2460  0.1308  0.1308  0.1103

 Free energy of the ion-electron system (eV)
  ---------------------------------------------------
  alpha Z        PSCENC =      2450.32051568
  Ewald energy   TEWEN  =    -40373.24020216
  -Hartree energ DENC   =     -9683.98611174
  -exchange      EXHF   =         0.00000000
  -V(xc)+E(xc)   XCENC  =      1155.88839116
  PAW double counting   =     48146.03537605   -50691.70547002
  entropy T*S    EENTRO =         0.00000000
  eigenvalues    EBANDS =      2764.78538180
  atomic energy  EATOM  =     45927.90526693
  Solvation  Ediel_sol  =         0.00000000
  ---------------------------------------------------
  free energy    TOTEN  =      -303.99685228 eV

  energy without entropy =     -303.99685228  energy(sigma->0) =     -303.99685228


--------------------------------------------------------------------------------------------------------




--------------------------------------- Iteration      1(  12)  ---------------------------------------


    POTLOK:  cpu time    0.0870: real time    0.0880
    SETDIJ:  cpu time    0.0160: real time    0.0152
    EDDIAG:  cpu time    5.2302: real time    5.2347
  RMM-DIIS:  cpu time   19.2551: real time   19.2816
    ORTHCH:  cpu time    0.9129: real time    0.9141
 BZINTS: Fermi energy:  8.369083;456.000000 electrons
         Band energy:2772.432261;  BLOECHL correction: -0.077095
       DOS:  cpu time    0.1530: real time    0.1534
    CHARGE:  cpu time    0.7399: real time    0.7401
    MIXING:  cpu time    0.0030: real time    0.0023
    --------------------------------------------
      LOOP:  cpu time   26.3970: real time   26.4293

 eigenvalue-minimisations  : 25155
 total energy-change (2. order) : 0.7385909E+01  (-0.3334353E+00)
 number of electron     456.0000057 magnetization      48.4144489
 augmentation part      271.2752091 magnetization      40.4725589

 Broyden mixing:
  rms(total) = 0.18615E+01    rms(broyden)= 0.18614E+01
  rms(prec ) = 0.24711E+01
  weight for this iteration     100.00

 eigenvalues of (default mixing * dielectric matrix)
  average eigenvalue GAMMA=   0.3943
  1.2858  0.4777  0.4777  0.1611  0.1237  0.1237  0.1108

 Free energy of the ion-electron system (eV)
  ---------------------------------------------------
  alpha Z        PSCENC =      2450.32051568
  Ewald energy   TEWEN  =    -40373.24020216
  -Hartree energ DENC   =     -9681.55800798
  -exchange      EXHF   =         0.00000000
  -V(xc)+E(xc)   XCENC  =      1156.45323224
  PAW double counting   =     48242.95743264   -50791.88144238
  entropy T*S    EENTRO =         0.00000000
  eigenvalues    EBANDS =      2772.43226125
  atomic energy  EATOM  =     45927.90526693
  Solvation  Ediel_sol  =         0.00000000
  ---------------------------------------------------
  free energy    TOTEN  =      -296.61094377 eV

  energy without entropy =     -296.61094377  energy(sigma->0) =     -296.61094377


--------------------------------------------------------------------------------------------------------




--------------------------------------- Iteration      1(  13)  ---------------------------------------


    POTLOK:  cpu time    0.0870: real time    0.0872
    SETDIJ:  cpu time    0.0160: real time    0.0154
    EDDIAG:  cpu time    5.2542: real time    5.2608
  RMM-DIIS:  cpu time   19.4190: real time   19.4888
    ORTHCH:  cpu time    0.9129: real time    0.9138
 BZINTS: Fermi energy:  8.413213;456.000000 electrons
         Band energy:2770.654438;  BLOECHL correction: -0.060147
       DOS:  cpu time    0.1560: real time    0.1558
    CHARGE:  cpu time    0.7629: real time    0.7626
    MIXING:  cpu time    0.0020: real time    0.0023
    --------------------------------------------
      LOOP:  cpu time   26.6100: real time   26.6866

 eigenvalue-minimisations  : 25215
 total energy-change (2. order) :-0.1120605E+01  (-0.2158255E+00)
 number of electron     456.0000056 magnetization      48.4964844
 augmentation part      271.1773535 magnetization      40.9738517

 Broyden mixing:
  rms(total) = 0.26799E+01    rms(broyden)= 0.26799E+01
  rms(prec ) = 0.41198E+01
  weight for this iteration     100.00

 eigenvalues of (default mixing * dielectric matrix)
  average eigenvalue GAMMA=   0.3725
  1.3122  0.4935  0.4935  0.1952  0.1322  0.1322  0.1340  0.0873

 Free energy of the ion-electron system (eV)
  ---------------------------------------------------
  alpha Z        PSCENC =      2450.32051568
  Ewald energy   TEWEN  =    -40373.24020216
  -Hartree energ DENC   =     -9678.98974562
  -exchange      EXHF   =         0.00000000
  -V(xc)+E(xc)   XCENC  =      1157.07003435
  PAW double counting   =     48340.86084889   -50892.31270498
  entropy T*S    EENTRO =         0.00000000
  eigenvalues    EBANDS =      2770.65443797
  atomic energy  EATOM  =     45927.90526693
  Solvation  Ediel_sol  =         0.00000000
  ---------------------------------------------------
  free energy    TOTEN  =      -297.73154893 eV

  energy without entropy =     -297.73154893  energy(sigma->0) =     -297.73154893


--------------------------------------------------------------------------------------------------------




--------------------------------------- Iteration      1(  14)  ---------------------------------------


    POTLOK:  cpu time    0.0870: real time    0.0873
    SETDIJ:  cpu time    0.0160: real time    0.0153
    EDDIAG:  cpu time    5.2262: real time    5.2291
  RMM-DIIS:  cpu time   19.4450: real time   19.4760
    ORTHCH:  cpu time    0.9039: real time    0.9044
 BZINTS: Fermi energy:  8.384050;456.000000 electrons
         Band energy:2770.334009;  BLOECHL correction: -0.080329
       DOS:  cpu time    0.1540: real time    0.1543
    CHARGE:  cpu time    0.7579: real time    0.7572
    MIXING:  cpu time    0.0020: real time    0.0024
    --------------------------------------------
      LOOP:  cpu time   26.5920: real time   26.6260

 eigenvalue-minimisations  : 25090
 total energy-change (2. order) : 0.5820769E+00  (-0.1474142E+00)
 number of electron     456.0000057 magnetization      48.6524352
 augmentation part      271.3661724 magnetization      41.2762950

 Broyden mixing:
  rms(total) = 0.16568E+01    rms(broyden)= 0.16567E+01
  rms(prec ) = 0.24638E+01
  weight for this iteration     100.00

 eigenvalues of (default mixing * dielectric matrix)
  average eigenvalue GAMMA=   0.3719
  1.3071  0.5243  0.5243  0.3804  0.1558  0.1274  0.1274  0.1174  0.0835

 Free energy of the ion-electron system (eV)
  ---------------------------------------------------
  alpha Z        PSCENC =      2450.32051568
  Ewald energy   TEWEN  =    -40373.24020216
  -Hartree energ DENC   =     -9675.50660048
  -exchange      EXHF   =         0.00000000
  -V(xc)+E(xc)   XCENC  =      1157.58733923
  PAW double counting   =     48460.43993937   -51014.98973958
  entropy T*S    EENTRO =         0.00000000
  eigenvalues    EBANDS =      2770.33400900
  atomic energy  EATOM  =     45927.90526693
  Solvation  Ediel_sol  =         0.00000000
  ---------------------------------------------------
  free energy    TOTEN  =      -297.14947201 eV

  energy without entropy =     -297.14947201  energy(sigma->0) =     -297.14947201


--------------------------------------------------------------------------------------------------------




--------------------------------------- Iteration      1(  15)  ---------------------------------------


    POTLOK:  cpu time    0.0880: real time    0.0881
    SETDIJ:  cpu time    0.0150: real time    0.0153
    EDDIAG:  cpu time    5.3192: real time    5.3221
  RMM-DIIS:  cpu time   19.6340: real time   19.7040
    ORTHCH:  cpu time    0.8749: real time    0.8760
 BZINTS: Fermi energy:  8.382971;456.000000 electrons
         Band energy:2769.408688;  BLOECHL correction: -0.100909
       DOS:  cpu time    0.1590: real time    0.1584
    CHARGE:  cpu time    0.7829: real time    0.7836
    MIXING:  cpu time    0.0030: real time    0.0025
    --------------------------------------------
      LOOP:  cpu time   26.8759: real time   26.9501

 eigenvalue-minimisations  : 25271
 total energy-change (2. order) : 0.2759758E+00  (-0.6716503E-01)
 number of electron     456.0000058 magnetization      49.0599936
 augmentation part      271.4133808 magnetization      41.6947669

 Broyden mixing:
  rms(total) = 0.13412E+01    rms(broyden)= 0.13412E+01
  rms(prec ) = 0.17958E+01
  weight for this iteration     100.00

 eigenvalues of (default mixing * dielectric matrix)
  average eigenvalue GAMMA=   0.4022
  1.2808  0.7497  0.7497  0.4943  0.1800  0.1238  0.1238  0.1189  0.1189  0.0820

 Free energy of the ion-electron system (eV)
  ---------------------------------------------------
  alpha Z        PSCENC =      2450.32051568
  Ewald energy   TEWEN  =    -40373.24020216
  -Hartree energ DENC   =     -9673.13042003
  -exchange      EXHF   =         0.00000000
  -V(xc)+E(xc)   XCENC  =      1157.79251286
  PAW double counting   =     48527.90764862   -51083.83750625
  entropy T*S    EENTRO =         0.00000000
  eigenvalues    EBANDS =      2769.40868818
  atomic energy  EATOM  =     45927.90526693
  Solvation  Ediel_sol  =         0.00000000
  ---------------------------------------------------
  free energy    TOTEN  =      -296.87349617 eV

  energy without entropy =     -296.87349617  energy(sigma->0) =     -296.87349617


--------------------------------------------------------------------------------------------------------




--------------------------------------- Iteration      1(  16)  ---------------------------------------


    POTLOK:  cpu time    0.0870: real time    0.0876
    SETDIJ:  cpu time    0.0160: real time    0.0153
    EDDIAG:  cpu time    5.1902: real time    5.2100
  RMM-DIIS:  cpu time   19.3461: real time   19.3814
    ORTHCH:  cpu time    0.8769: real time    0.8787
 BZINTS: Fermi energy:  8.409437;456.000000 electrons
         Band energy:2768.783036;  BLOECHL correction: -0.084879
       DOS:  cpu time    0.1700: real time    0.1698
    CHARGE:  cpu time    0.7709: real time    0.7715
    MIXING:  cpu time    0.0030: real time    0.0029
    --------------------------------------------
      LOOP:  cpu time   26.4600: real time   26.5171

 eigenvalue-minimisations  : 25074
 total energy-change (2. order) :-0.4071116E+00  (-0.5211050E-01)
 number of electron     456.0000056 magnetization      49.6745756
 augmentation part      271.2439540 magnetization      42.7285074

 Broyden mixing:
  rms(total) = 0.15940E+01    rms(broyden)= 0.15940E+01
  rms(prec ) = 0.22883E+01
  weight for this iteration     100.00

 eigenvalues of (default mixing * dielectric matrix)
  average eigenvalue GAMMA=   0.4003
  1.2655  0.8693  0.8693  0.5091  0.1689  0.1689  0.1268  0.1268  0.1147  0.1001
  0.0845

 Free energy of the ion-electron system (eV)
  ---------------------------------------------------
  alpha Z        PSCENC =      2450.32051568
  Ewald energy   TEWEN  =    -40373.24020216
  -Hartree energ DENC   =     -9670.53487572
  -exchange      EXHF   =         0.00000000
  -V(xc)+E(xc)   XCENC  =      1158.33689218
  PAW double counting   =     48655.98923082   -51214.84047171
  entropy T*S    EENTRO =         0.00000000
  eigenvalues    EBANDS =      2768.78303617
  atomic energy  EATOM  =     45927.90526693
  Solvation  Ediel_sol  =         0.00000000
  ---------------------------------------------------
  free energy    TOTEN  =      -297.28060781 eV

  energy without entropy =     -297.28060781  energy(sigma->0) =     -297.28060781


--------------------------------------------------------------------------------------------------------




--------------------------------------- Iteration      1(  17)  ---------------------------------------


    POTLOK:  cpu time    0.0880: real time    0.0873
    SETDIJ:  cpu time    0.0150: real time    0.0153
    EDDIAG:  cpu time    5.2172: real time    5.2272
  RMM-DIIS:  cpu time   19.0201: real time   19.0508
    ORTHCH:  cpu time    0.8799: real time    0.8810
 BZINTS: Fermi energy:  8.393168;456.000000 electrons
         Band energy:2766.579994;  BLOECHL correction: -0.138389
       DOS:  cpu time    0.1540: real time    0.1538
    CHARGE:  cpu time    0.7639: real time    0.7644
    MIXING:  cpu time    0.0030: real time    0.0027
    --------------------------------------------
      LOOP:  cpu time   26.1410: real time   26.1826

 eigenvalue-minimisations  : 24676
 total energy-change (2. order) : 0.4148847E-01  (-0.8171351E-01)
 number of electron     456.0000057 magnetization      50.2334668
 augmentation part      271.4054118 magnetization      43.1817860

 Broyden mixing:
  rms(total) = 0.11451E+01    rms(broyden)= 0.11451E+01
  rms(prec ) = 0.16697E+01
  weight for this iteration     100.00

 eigenvalues of (default mixing * dielectric matrix)
  average eigenvalue GAMMA=   0.4094
  1.2838  0.9762  0.9762  0.4660  0.3551  0.1824  0.1424  0.1259  0.1259  0.1092
  0.0907  0.0790

 Free energy of the ion-electron system (eV)
  ---------------------------------------------------
  alpha Z        PSCENC =      2450.32051568
  Ewald energy   TEWEN  =    -40373.24020216
  -Hartree energ DENC   =     -9664.08293172
  -exchange      EXHF   =         0.00000000
  -V(xc)+E(xc)   XCENC  =      1158.82972736
  PAW double counting   =     48875.16189129   -51438.71338088
  entropy T*S    EENTRO =         0.00000000
  eigenvalues    EBANDS =      2766.57999416
  atomic energy  EATOM  =     45927.90526693
  Solvation  Ediel_sol  =         0.00000000
  ---------------------------------------------------
  free energy    TOTEN  =      -297.23911933 eV

  energy without entropy =     -297.23911933  energy(sigma->0) =     -297.23911933


--------------------------------------------------------------------------------------------------------




--------------------------------------- Iteration      1(  18)  ---------------------------------------


    POTLOK:  cpu time    0.0870: real time    0.0870
    SETDIJ:  cpu time    0.0150: real time    0.0154
    EDDIAG:  cpu time    5.2492: real time    5.2933
  RMM-DIIS:  cpu time   19.9360: real time   19.9692
    ORTHCH:  cpu time    0.8959: real time    0.8980
 BZINTS: Fermi energy:  8.398764;456.000000 electrons
         Band energy:2764.783816;  BLOECHL correction: -0.144325
       DOS:  cpu time    0.1540: real time    0.1549
    CHARGE:  cpu time    0.7759: real time    0.7759
    MIXING:  cpu time    0.0040: real time    0.0029
    --------------------------------------------
      LOOP:  cpu time   27.1169: real time   27.1965

 eigenvalue-minimisations  : 25028
 total energy-change (2. order) : 0.1215000E-01  (-0.3614645E-01)
 number of electron     456.0000056 magnetization      51.0479074
 augmentation part      271.3813398 magnetization      44.1846977

 Broyden mixing:
  rms(total) = 0.10005E+01    rms(broyden)= 0.10005E+01
  rms(prec ) = 0.13443E+01
  weight for this iteration     100.00

 eigenvalues of (default mixing * dielectric matrix)
  average eigenvalue GAMMA=   0.4284
  1.3109  1.1393  1.1393  0.4867  0.4867  0.1988  0.1243  0.1243  0.1372  0.1372
  0.1119  0.0823  0.0904

 Free energy of the ion-electron system (eV)
  ---------------------------------------------------
  alpha Z        PSCENC =      2450.32051568
  Ewald energy   TEWEN  =    -40373.24020216
  -Hartree energ DENC   =     -9660.62364200
  -exchange      EXHF   =         0.00000000
  -V(xc)+E(xc)   XCENC  =      1159.33651644
  PAW double counting   =     48981.42616740   -51547.13540793
  entropy T*S    EENTRO =         0.00000000
  eigenvalues    EBANDS =      2764.78381629
  atomic energy  EATOM  =     45927.90526693
  Solvation  Ediel_sol  =         0.00000000
  ---------------------------------------------------
  free energy    TOTEN  =      -297.22696934 eV

  energy without entropy =     -297.22696934  energy(sigma->0) =     -297.22696934


--------------------------------------------------------------------------------------------------------




--------------------------------------- Iteration      1(  19)  ---------------------------------------


    POTLOK:  cpu time    0.0880: real time    0.0888
    SETDIJ:  cpu time    0.0160: real time    0.0153
    EDDIAG:  cpu time    5.3632: real time    5.3666
  RMM-DIIS:  cpu time   19.5080: real time   19.5847
    ORTHCH:  cpu time    0.9509: real time    0.9592
 BZINTS: Fermi energy:  8.397709;456.000000 electrons
         Band energy:2761.735106;  BLOECHL correction: -0.161936
       DOS:  cpu time    0.1530: real time    0.1544
    CHARGE:  cpu time    0.7549: real time    0.7563
    MIXING:  cpu time    0.0030: real time    0.0030
    --------------------------------------------
      LOOP:  cpu time   26.8369: real time   26.9284

 eigenvalue-minimisations  : 25034
 total energy-change (2. order) :-0.1310036E+00  (-0.2202391E-01)
 number of electron     456.0000057 magnetization      51.4782136
 augmentation part      271.5238166 magnetization      44.5767679

 Broyden mixing:
  rms(total) = 0.79686E+00    rms(broyden)= 0.79684E+00
  rms(prec ) = 0.11224E+01
  weight for this iteration     100.00

 eigenvalues of (default mixing * dielectric matrix)
  average eigenvalue GAMMA=   0.4504
  1.2970  1.2970  1.3245  0.4887  0.4887  0.4274  0.1632  0.1632  0.1258  0.1258
  0.1267  0.1063  0.0904  0.0810

 Free energy of the ion-electron system (eV)
  ---------------------------------------------------
  alpha Z        PSCENC =      2450.32051568
  Ewald energy   TEWEN  =    -40373.24020216
  -Hartree energ DENC   =     -9656.06840201
  -exchange      EXHF   =         0.00000000
  -V(xc)+E(xc)   XCENC  =      1159.77608688
  PAW double counting   =     49085.84155196   -51653.62789610
  entropy T*S    EENTRO =         0.00000000
  eigenvalues    EBANDS =      2761.73510592
  atomic energy  EATOM  =     45927.90526693
  Solvation  Ediel_sol  =         0.00000000
  ---------------------------------------------------
  free energy    TOTEN  =      -297.35797289 eV

  energy without entropy =     -297.35797289  energy(sigma->0) =     -297.35797289


--------------------------------------------------------------------------------------------------------




--------------------------------------- Iteration      1(  20)  ---------------------------------------


    POTLOK:  cpu time    0.0870: real time    0.0875
    SETDIJ:  cpu time    0.0160: real time    0.0154
    EDDIAG:  cpu time    5.2692: real time    5.2917
  RMM-DIIS:  cpu time   19.6510: real time   19.8754
    ORTHCH:  cpu time    0.8859: real time    0.8877
 BZINTS: Fermi energy:  8.398521;456.000000 electrons
         Band energy:2760.871999;  BLOECHL correction: -0.166471
       DOS:  cpu time    0.1560: real time    0.1556
    CHARGE:  cpu time    0.7829: real time    0.7832
    MIXING:  cpu time    0.0040: real time    0.0036
    --------------------------------------------
      LOOP:  cpu time   26.8519: real time   27.1000

 eigenvalue-minimisations  : 25092
 total energy-change (2. order) :-0.7122272E-01  (-0.1579831E-01)
 number of electron     456.0000057 magnetization      52.7370974
 augmentation part      271.5598963 magnetization      45.8377893

 Broyden mixing:
  rms(total) = 0.76101E+00    rms(broyden)= 0.76100E+00
  rms(prec ) = 0.10895E+01
  weight for this iteration     100.00

 eigenvalues of (default mixing * dielectric matrix)
  average eigenvalue GAMMA=   0.4919
  1.5777  1.5777  1.3478  0.6267  0.6267  0.5076  0.1719  0.1719  0.1258  0.1258
  0.1211  0.1211  0.1034  0.0916  0.0813

 Free energy of the ion-electron system (eV)
  ---------------------------------------------------
  alpha Z        PSCENC =      2450.32051568
  Ewald energy   TEWEN  =    -40373.24020216
  -Hartree energ DENC   =     -9654.52798896
[...]
   46        0.005  -0.011   2.793   2.788
   47        0.003  -0.014   2.752   2.741
   48        0.010  -0.009   2.820   2.821
--------------------------------------------------
tot         -0.471  -1.487  57.174  55.217
 
    CHARGE:  cpu time    0.7839: real time    0.7867
    FORLOC:  cpu time    0.0130: real time    0.0129
    FORNL :  cpu time    8.0818: real time    8.0916
    STRESS:  cpu time   24.5563: real time   24.6438
    FORCOR:  cpu time    0.0960: real time    0.0957
    FORHAR:  cpu time    0.0230: real time    0.0243
    MIXING:  cpu time    0.0070: real time    0.0071
    OFIELD:  cpu time    0.0000: real time    0.0001

  FORCE on cell =-STRESS in cart. coord.  units (eV):
  Direction    XX          YY          ZZ          XY          YZ          ZX
  --------------------------------------------------------------------------------------
  Alpha Z  2450.32052  2450.32052  2450.32052
  Ewald  -13436.90018-13424.52992-13511.99695   -46.60694    47.57536    53.51700
  Hartree  3233.27592  3245.15244  3160.34653   -45.26001    46.85370    52.31408
  E(xc)   -2461.04254 -2460.76052 -2461.05232     0.02253    -0.05075     0.03534
  Local     314.77765   291.65339   461.91990    89.51890   -94.05787  -103.31080
  n-local  -584.20081  -582.61007  -584.16548     0.20153    -0.81703    -0.47610
  augment  6807.26530  6805.79140  6807.81016     1.52900    -0.06347    -1.68400
  Kinetic  3675.50721  3673.19993  3676.64985     0.29030    -0.10765    -0.85821
  Fock        0.00000     0.00000     0.00000     0.00000     0.00000     0.00000
  -------------------------------------------------------------------------------------
  Total      -0.99693    -1.78283    -0.16780    -0.30468    -0.66771    -0.46269
  in kB      -2.98777    -5.34307    -0.50288    -0.91312    -2.00110    -1.38665
  external pressure =       -2.94 kB  Pullay stress =        0.00 kB


 VOLUME and BASIS-vectors are now :
 -----------------------------------------------------------------------------
  energy-cutoff  :      520.00
  volume of cell :      534.60
      direct lattice vectors                 reciprocal lattice vectors
     7.090000000 -7.090000000  0.000000000     0.094029149 -0.047014575 -0.047014575
     0.000000000  7.090000000 -7.090000000     0.047014575  0.047014575 -0.094029149
     3.545000000  3.545000000  3.545000000     0.094029149  0.094029149  0.094029149

  length of vectors
    10.026774157 10.026774157  6.140120113     0.115161718  0.115161718  0.162863264


 FORCES acting on ions
    electron-ion (+dipol)            ewald-force                    non-local-force                 convergence-correction
 -----------------------------------------------------------------------------------------------
   -.202E+02 0.162E+02 0.496E+02   0.202E+02 -.160E+02 -.495E+02   -.341E-01 -.106E+00 -.966E-01   0.991E-02 -.956E-02 -.113E-01
   -.121E+02 0.158E+02 0.896E+02   0.121E+02 -.158E+02 -.895E+02   -.703E-01 -.324E-01 -.984E-01   -.519E-02 0.313E-02 -.127E-01
   -.247E+01 -.184E+02 0.279E+02   0.252E+01 0.184E+02 -.278E+02   -.402E-01 -.510E-02 -.832E-01   -.915E-02 0.372E-02 -.866E-03
   0.991E+01 -.383E+02 -.226E+01   -.995E+01 0.383E+02 0.228E+01   0.373E-01 0.629E-02 -.192E-01   0.227E-02 0.699E-03 -.307E-02
   -.384E+02 -.754E+01 0.838E+02   0.384E+02 0.757E+01 -.837E+02   -.253E-01 -.166E-01 -.172E+00   0.112E-01 -.101E-01 -.282E-02
   -.612E+02 0.105E+02 0.116E+03   0.614E+02 -.104E+02 -.116E+03   -.180E+00 -.771E-01 0.212E+00   0.779E-03 -.117E-01 -.794E-02
   -.888E+02 -.145E+02 0.577E+02   0.886E+02 0.143E+02 -.577E+02   0.185E+00 0.123E+00 0.411E-01   0.135E-01 -.331E-02 -.107E-01
   0.416E+02 -.135E+02 0.101E+03   -.417E+02 0.134E+02 -.101E+03   0.199E+00 0.820E-01 0.882E-01   -.226E-01 0.153E-01 0.120E-02
   -.854E+02 -.778E+02 0.335E+02   0.854E+02 0.778E+02 -.334E+02   -.635E-01 -.770E-01 -.471E-01   -.164E-02 0.173E-01 -.123E-01
   0.120E+02 -.333E+02 0.584E+02   -.121E+02 0.333E+02 -.584E+02   0.391E-01 0.314E-01 -.188E-01   0.272E-02 -.142E-02 0.626E-02
   -.562E+02 -.620E+02 0.162E+02   0.562E+02 0.620E+02 -.163E+02   -.370E-01 0.471E-02 0.767E-01   -.807E-02 -.134E-02 -.500E-02
   -.395E+01 -.821E+02 0.346E+02   0.391E+01 0.821E+02 -.346E+02   0.418E-01 0.247E-01 0.439E-01   0.846E-02 -.255E-03 -.372E-02
   0.249E+02 -.487E+02 0.765E+02   -.249E+02 0.488E+02 -.764E+02   -.585E-01 0.172E-02 -.354E-01   0.415E-02 -.289E-02 0.346E-02
   -.319E+02 -.204E+02 0.526E+02   0.318E+02 0.204E+02 -.525E+02   0.123E+00 -.261E-01 -.111E+00   0.121E-01 -.117E-02 -.783E-02
   0.163E+02 0.557E+02 -.126E+02   -.163E+02 -.557E+02 0.125E+02   -.615E-02 -.102E-01 0.582E-01   0.111E-01 -.134E-02 -.914E-03
   -.368E+02 -.149E+02 0.211E+01   0.368E+02 0.148E+02 -.212E+01   -.314E-01 0.754E-01 0.770E-02   0.410E-02 -.806E-02 0.315E-02
   -.674E+02 0.583E+01 0.479E+02   0.675E+02 -.583E+01 -.480E+02   -.623E-01 0.122E-01 0.608E-01   0.159E-01 -.158E-01 0.465E-02
   0.852E+02 0.118E+02 -.302E+02   -.852E+02 -.118E+02 0.302E+02   -.173E-01 -.225E-01 0.437E-01   0.613E-02 0.112E-01 0.302E-02
   -.530E+01 -.538E+02 -.475E+02   0.537E+01 0.540E+02 0.477E+02   -.370E-01 -.211E+00 -.176E+00   -.163E-01 0.129E-01 0.276E-02
   0.200E+02 0.316E+02 -.285E+02   -.199E+02 -.316E+02 0.285E+02   -.508E-01 -.351E-01 0.360E-01   0.755E-02 -.390E-03 -.643E-02
   0.120E+02 0.649E+02 -.354E+02   -.120E+02 -.649E+02 0.355E+02   -.714E-01 -.546E-01 -.536E-01   -.182E-02 0.233E-02 -.233E-02
   0.549E+01 0.295E+02 -.788E+02   -.555E+01 -.294E+02 0.786E+02   0.728E-01 -.141E-01 0.195E+00   -.632E-02 -.665E-02 -.259E-02
   0.334E+02 0.246E+02 -.890E+02   -.334E+02 -.245E+02 0.890E+02   0.395E-01 -.279E-01 -.151E-02   -.797E-02 0.310E-02 0.766E-02
   0.375E+01 0.570E+02 -.568E+02   -.377E+01 -.571E+02 0.566E+02   0.248E-01 0.115E+00 0.120E+00   -.498E-02 -.104E-01 0.596E-02
   0.770E+02 0.228E+02 -.628E+02   -.769E+02 -.227E+02 0.628E+02   -.107E+00 -.583E-01 -.124E-01   0.726E-02 -.348E-03 0.369E-02
   0.613E+02 0.110E+02 -.797E+02   -.613E+02 -.110E+02 0.796E+02   0.697E-01 0.323E-01 0.125E+00   -.817E-02 -.159E-02 0.857E-02
   0.888E+01 0.444E+02 -.106E+03   -.870E+01 -.444E+02 0.106E+03   -.177E+00 -.122E-01 -.299E+00   -.839E-02 -.110E-01 0.181E-01
   0.383E+02 0.109E+02 -.963E+02   -.383E+02 -.110E+02 0.961E+02   -.809E-02 0.577E-01 0.180E+00   -.474E-02 -.543E-02 -.382E-02
   0.640E+02 0.567E+02 -.891E+02   -.641E+02 -.568E+02 0.893E+02   0.874E-01 0.788E-01 -.248E+00   0.727E-02 -.252E-02 -.772E-02
   -.486E+02 -.138E+02 0.109E+02   0.486E+02 0.138E+02 -.110E+02   0.654E-01 0.482E-01 0.546E-01   0.623E-03 -.105E-02 -.891E-02
   -.505E+02 -.754E+01 0.806E+01   0.504E+02 0.744E+01 -.814E+01   0.461E-01 0.991E-01 0.849E-01   -.759E-02 -.230E-02 -.500E-02
   -.303E+02 0.137E+02 0.151E+02   0.302E+02 -.137E+02 -.151E+02   0.543E-02 -.283E-01 0.312E-01   0.994E-02 0.131E-01 0.297E-02
   0.258E+02 0.113E+02 -.157E+01   -.258E+02 -.114E+02 0.157E+01   -.909E-01 0.600E-01 -.732E-02   0.152E-02 0.529E-02 0.739E-02
   0.277E+02 -.217E+02 -.119E+02   -.277E+02 0.218E+02 0.119E+02   0.555E-02 -.162E-01 0.258E-01   -.313E-03 -.262E-02 -.336E-02
   0.511E+02 0.198E+02 -.351E+02   -.511E+02 -.197E+02 0.350E+02   0.130E-02 -.754E-01 0.117E+00   -.375E-02 0.151E-02 0.905E-03
   0.114E+02 0.126E+02 -.216E+02   -.115E+02 -.125E+02 0.215E+02   0.404E-01 -.154E-01 0.241E-01   0.140E-01 0.160E-02 -.203E-02
   -.849E+02 0.142E+02 0.617E+02   0.851E+02 -.143E+02 -.619E+02   -.275E+00 0.101E+00 0.148E+00   0.162E-01 0.728E-02 -.894E-02
   -.156E+02 -.601E+02 0.766E+02   0.155E+02 0.603E+02 -.769E+02   0.444E-01 -.268E+00 0.348E+00   -.442E-02 0.192E-01 0.815E-03
   -.223E+02 0.516E+02 -.733E+01   0.225E+02 -.516E+02 0.733E+01   -.263E+00 0.525E-01 -.977E-02   0.249E-02 -.774E-02 0.544E-02
   0.714E+02 0.153E+02 -.257E+02   -.716E+02 -.152E+02 0.257E+02   0.219E+00 -.646E-01 0.165E-01   -.159E-01 -.122E-03 0.101E-01
   -.202E+02 0.280E+02 0.999E+01   0.202E+02 -.281E+02 -.102E+02   0.204E-01 0.902E-01 0.199E+00   0.149E-02 -.301E-02 0.946E-02
   -.292E+02 0.627E+01 0.149E+02   0.296E+02 -.658E+01 -.148E+02   -.381E+00 0.297E+00 -.166E+00   -.137E-01 0.126E-01 0.669E-02
   -.126E+02 -.329E+02 -.532E+02   0.126E+02 0.330E+02 0.536E+02   -.358E-01 -.764E-01 -.357E+00   0.322E-02 -.560E-02 -.398E-02
   0.390E+02 -.198E+02 0.383E+02   -.392E+02 0.197E+02 -.383E+02   0.195E+00 0.109E+00 0.442E-01   -.815E-02 0.640E-02 0.437E-02
   0.125E+02 -.307E+02 0.706E+02   -.127E+02 0.309E+02 -.707E+02   0.275E+00 -.180E+00 0.948E-01   0.441E-02 -.113E-01 0.533E-03
   0.535E+01 0.261E+02 -.704E+02   -.532E+01 -.262E+02 0.704E+02   -.375E-01 0.947E-01 -.378E-01   0.479E-02 -.422E-02 0.423E-02
   0.557E+02 0.159E+02 -.108E+03   -.559E+02 -.158E+02 0.109E+03   0.262E+00 -.624E-01 -.374E+00   -.131E-01 0.499E-02 0.304E-02
   0.103E+02 -.122E+02 -.357E+01   -.103E+02 0.122E+02 0.365E+01   -.223E-01 0.296E-01 -.784E-01   -.128E-02 -.224E-02 0.600E-03
 -----------------------------------------------------------------------------------------------
   0.749E-01 -.524E-01 0.347E-01   -.279E-12 -.139E-12 -.294E-12   -.827E-01 0.532E-01 -.266E-01   0.946E-02 -.385E-02 -.928E-02
 
 
 POSITION                                       TOTAL-FORCE (eV/Angst)
 -----------------------------------------------------------------------------------
      0.00985      0.00611      0.00234         0.009999      0.003992     -0.002057
      5.31320      1.77005      3.53857        -0.002399      0.003799     -0.001903
      3.54584      3.54659     -7.07900        -0.002583      0.004897     -0.006431
      5.31803      1.77721     -7.07880         0.002146     -0.001562      0.002618
      7.08458     -5.31423     -1.75770         0.005266      0.001291      0.010098
      5.31822      3.54547      1.77080        -0.006988      0.020652     -0.000398
      1.77340      1.77743      0.00647         0.006573     -0.012532     -0.006045
      3.55486     -1.77946     -1.75949         0.012486     -0.007186      0.004402
      3.54711      0.00906      0.00355         0.001625      0.006649     -0.000108
      5.33664     -3.53287     -1.75752         0.001435      0.005268     -0.008222
      5.32688     -1.74477      0.01287        -0.001540     -0.000480      0.004552
      7.10852     -3.53598      0.01317         0.002962      0.000765      0.006482
      7.09025     -1.75884      1.78241        -0.000448      0.007873     -0.005081
      8.86201     -3.55090      1.78315         0.001897      0.008523     -0.013868
      3.54521      7.06757     -0.01616         0.008560     -0.000223      0.007082
      1.76282      3.56548     -1.76104        -0.007041     -0.009590     -0.004320
      3.54285      3.55501     -0.00265        -0.003059     -0.005535     -0.005264
      8.86443      1.76354     -0.02339        -0.004541      0.002812      0.003900
      5.32644      0.00204     -1.76175         0.007057      0.000658     -0.000012
      3.54354      8.85375     -1.78986        -0.005701      0.003713     -0.000928
      5.29906      7.07727     -1.77593        -0.009509      0.001476     -0.004336
      1.76885      5.31802     -3.56184         0.006408     -0.005997      0.002638
      7.07834      5.30388     -1.77634         0.001274     -0.007775      0.015756
      3.53079      3.54021     -3.56099         0.003436      0.001431      0.001260
      8.87158      3.54253     -1.77915         0.002380     -0.010932      0.000980
      5.30483      1.76493     -3.55528         0.005327     -0.002908      0.012418
      5.30344      3.52230     -1.77672        -0.008404     -0.002585     -0.008289
      7.09000     -0.00150     -3.55680        -0.011946     -0.002543      0.003018
      8.85151     -0.01755     -1.78576        -0.005676     -0.003922      0.002885
      1.76765      7.09241     -5.32076        -0.000353     -0.016107      0.000686
      3.55168      5.31455     -5.31975         0.012852     -0.004424      0.004273
      3.53835      7.09629     -3.56548         0.003560      0.002628      0.005360
      5.32165      5.30802     -3.53507        -0.007144      0.004638      0.002600
      7.09507      1.79521     -5.30875         0.000142      0.009950     -0.004549
      7.09195      3.55327     -3.54027         0.009907      0.009154      0.002393
      8.86808      1.77153     -3.54122        -0.001425      0.001107      0.002008
      3.50201      1.79151      1.77346         0.008293     -0.003992     -0.010102
      5.31134     -0.03508      1.80785         0.004286      0.001164     -0.012912
      5.30177      5.31913      0.00310        -0.001557     -0.006438     -0.004219
      3.59639     -0.02211     -3.55796        -0.008565     -0.014410     -0.002356
      3.53620      1.79532     -1.77056         0.000645      0.008924      0.003070
      5.32270      1.76831      0.02060         0.011286     -0.006105     -0.013247
      7.08108     -1.77225     -1.79516        -0.005626      0.006685      0.000094
      7.12429      0.01839      0.03620        -0.002702      0.009027      0.003276
      8.87174     -1.77725      0.07008        -0.001104      0.009575     -0.004458
      3.53251      5.30537     -1.83799        -0.004752     -0.007284     -0.000311
      7.08555      1.76845     -1.84008        -0.018134      0.001658      0.011950
      5.32191      3.55159     -5.31039        -0.008607     -0.005776      0.005617
 -----------------------------------------------------------------------------------
    total drift:                                0.001655     -0.003075     -0.001182


--------------------------------------------------------------------------------------------------------



  FREE ENERGIE OF THE ION-ELECTRON SYSTEM (eV)
  ---------------------------------------------------
  free  energy   TOTEN  =      -297.54696920 eV

  energy  without entropy=     -297.54696920  energy(sigma->0) =     -297.54696920
 


--------------------------------------------------------------------------------------------------------


    POTLOK:  cpu time    0.1050: real time    0.1051


--------------------------------------------------------------------------------------------------------


     LOOP+:  cpu time 1185.9337: real time 1189.6352
    4ORBIT:  cpu time    0.0000: real time    0.0000
 


 total charge     
 
# of ion       s       p       d       tot
------------------------------------------
    1        0.494   0.487   8.312   9.293
    2        0.494   0.488   8.316   9.298
    3        0.496   0.490   8.318   9.303
    4        0.491   0.483   8.315   9.289
    5        0.498   0.494   8.318   9.310
    6        0.505   0.505   8.315   9.325
    7        0.497   0.495   8.320   9.312
    8        0.503   0.502   8.316   9.321
    9        0.502   0.502   8.314   9.319
   10        0.503   0.501   8.324   9.328
   11        0.502   0.503   8.320   9.326
   12        0.500   0.500   8.318   9.317
   13        0.507   0.507   8.331   9.345
   14        0.501   0.500   8.323   9.324
   15        0.502   0.503   8.318   9.323
   16        0.508   0.509   8.322   9.339
   17        0.512   0.520   8.322   9.354
   18        0.504   0.504   8.325   9.332
   19        0.510   0.511   8.324   9.345
   20        0.488   0.479   8.310   9.278
   21        0.497   0.492   8.313   9.302
   22        0.498   0.497   8.314   9.310
   23        0.498   0.495   8.322   9.315
   24        0.504   0.508   8.330   9.342
   25        0.499   0.496   8.314   9.309
   26        0.505   0.509   8.326   9.340
   27        0.511   0.515   8.322   9.348
   28        0.497   0.497   8.316   9.310
   29        0.507   0.508   8.318   9.333
   30        0.493   0.487   8.316   9.296
   31        0.496   0.489   8.327   9.312
   32        0.504   0.504   8.321   9.329
   33        0.505   0.505   8.328   9.337
   34        0.491   0.483   8.321   9.296
   35        0.499   0.499   8.317   9.315
   36        0.501   0.498   8.323   9.322
   37        0.477   0.507   6.156   7.140
   38        0.478   0.512   6.171   7.161
   39        0.471   0.502   6.168   7.142
   40        0.474   0.505   6.183   7.163
   41        0.474   0.503   6.175   7.152
   42        0.477   0.512   6.205   7.193
   43        0.471   0.500   6.150   7.122
   44        0.479   0.513   6.199   7.190
   45        0.477   0.510   6.170   7.157
   46        0.476   0.505   6.153   7.135
   47        0.478   0.510   6.166   7.154
   48        0.468   0.499   6.134   7.101
--------------------------------------------------
tot         23.725  24.042 373.540 421.307
 


 magnetization (x)
 
# of ion       s       p       d       tot
------------------------------------------
    1       -0.010  -0.030   0.676   0.636
    2       -0.012  -0.033   0.669   0.624
    3       -0.012  -0.031   0.668   0.624
    4       -0.010  -0.030   0.661   0.621
    5       -0.010  -0.031   0.676   0.635
    6       -0.020  -0.044   0.707   0.644
    7       -0.011  -0.032   0.665   0.623
    8       -0.015  -0.039   0.694   0.640
    9       -0.016  -0.041   0.698   0.640
   10       -0.014  -0.036   0.662   0.613
   11       -0.016  -0.041   0.686   0.629
   12       -0.014  -0.038   0.681   0.629
   13       -0.018  -0.036   0.654   0.600
   14       -0.012  -0.031   0.662   0.619
   15       -0.016  -0.039   0.702   0.646
   16       -0.020  -0.043   0.704   0.641
   17       -0.020  -0.047   0.716   0.649
   18       -0.016  -0.037   0.682   0.629
   19       -0.022  -0.044   0.694   0.627
   20       -0.005  -0.025   0.664   0.633
   21       -0.011  -0.031   0.679   0.636
   22       -0.011  -0.035   0.697   0.651
   23       -0.013  -0.035   0.655   0.607
   24       -0.016  -0.042   0.649   0.591
   25       -0.012  -0.032   0.685   0.642
   26       -0.015  -0.041   0.670   0.614
   27       -0.022  -0.046   0.697   0.630
   28       -0.011  -0.033   0.682   0.639
   29       -0.020  -0.043   0.712   0.650
   30       -0.010  -0.029   0.654   0.616
   31       -0.013  -0.029   0.625   0.583
   32       -0.014  -0.034   0.690   0.642
   33       -0.014  -0.035   0.656   0.607
   34       -0.010  -0.027   0.630   0.593
   35       -0.012  -0.034   0.686   0.639
   36       -0.012  -0.030   0.673   0.631
   37        0.005  -0.011   2.783   2.776
   38        0.003  -0.017   2.729   2.715
   39        0.004  -0.018   2.735   2.721
   40        0.000  -0.021   2.689   2.669
   41        0.004  -0.015   2.718   2.707
   42       -0.005  -0.030   2.623   2.587
   43        0.005  -0.013   2.787   2.779
   44       -0.003  -0.026   2.645   2.617
   45        0.003  -0.018   2.736   2.722
   46        0.005  -0.011   2.793   2.788
   47        0.003  -0.014   2.752   2.741
   48        0.010  -0.009   2.820   2.821
--------------------------------------------------
tot         -0.471  -1.487  57.174  55.217
 
 BZINTS: Fermi energy:  8.407866;456.000000 electrons
         Band energy:2753.347208;  BLOECHL correction: -0.188438

 total amount of memory used by VASP MPI-rank0   112058. kBytes
=======================================================================

   base      :      30000. kBytes
   nonlr-proj:      10962. kBytes
   fftplans  :       2598. kBytes
   grid      :       6545. kBytes
   one-center:         93. kBytes
   wavefun   :      61860. kBytes
 
  
  
 General timing and accounting informations for this job:
 ========================================================
  
                  Total CPU time used (sec):     1231.592
                            User time (sec):     1212.595
                          System time (sec):       18.997
                         Elapsed time (sec):     1250.042
  
                   Maximum memory used (kb):      189256.
                   Average memory used (kb):           0.
  
                          Minor page faults:        42773
                          Major page faults:            0
                 Voluntary context switches:         8326
