SQS-NiFe                                
           1
     7.090000   -7.090000    0.000000
     0.000000    7.090000   -7.090000
     3.545000    3.545000    3.545000
   Ni   Fe
  36  12
Direct configuration=     1
   0.00052915  0.00053012  0.00172073
   0.25001339  0.00028713  0.99876021
   0.49948714  0.99907987  0.00126392
   0.74930184  0.99919313  0.00154605
   0.99864044  0.24850661  0.00118895
   0.25012555  0.25021635  0.99995220
   0.08288236  0.16633207  0.33449007
   0.50064226  0.24891256  0.00149595
   0.33293879  0.16685755  0.33471695
   0.75052539  0.25006154  0.00434867
   0.58230650  0.16720136  0.33803282
   0.83403173  0.16672361  0.33716192
   0.66558135  0.08305528  0.66890668
   0.91639691  0.08203148  0.66706692
   0.00183375  0.50047506  0.99639072
   0.08092228  0.41609737  0.33542622
   0.16611831  0.33395208  0.66715701
   0.75170250  0.50186896  0.99714027
   0.58357301  0.41617229  0.33537684
   0.00109063  0.75115249  0.99740701
   0.24902597  0.74885696  0.99674663
   0.08375785  0.66810354  0.33145583
   0.49972492  0.74917262  0.99726192
   0.33297404  0.66727679  0.33004326
   0.75128304  0.75093635  0.99999624
   0.58298092  0.66668194  0.33046276
   0.41661008  0.58200171  0.66281339
   0.83395904  0.66770620  0.33208286
   0.91708260  0.58323878  0.66273597
   0.08291687  0.91685802  0.33279753
   0.33420554  0.91705372  0.33347287
   0.16670855  0.83524215  0.66470704
   0.41703531  0.83214858  0.66709882
   0.83233101  0.91715006  0.33676761
   0.66623909  0.83336959  0.66807273
   0.91705920  0.83319481  0.66745548
   0.16168539  0.08211531  0.66450213
   0.41607483  0.07807067  0.66611242
   0.24829879  0.49904588  0.99896575
   0.50648054  0.50259484  0.00153479
   0.33134146  0.41714328  0.33483437
   0.41638363  0.33144341  0.66869827
   0.83354808  0.41838968  0.33038754
   0.66732406  0.33240595  0.67502351
   0.91446436  0.32695492  0.67367832
   0.16914153  0.58833391  0.65819269
   0.66961592  0.58928852  0.65951236
   0.58310412  0.91651489  0.33503679
