SQS-NiFe                                
           1
     9.967380    0.000000    0.000000
    -4.983690    8.632004    0.000000
     0.000000    0.000000   21.103750
   Ni   O 
  64   4
Direct configuration=     1
   0.11283300  0.22566700  0.09477000
   0.11092482  0.22757355  0.38250136
   0.19616700  0.14233300  0.19117800
   0.02980593  0.05914509  0.28471391
   0.36283300  0.22566700  0.09477000
   0.36661655  0.22745473  0.38252654
   0.44616700  0.14233300  0.19117800
   0.27929155  0.05910384  0.28471731
   0.61283300  0.22566700  0.09477000
   0.61085361  0.22745237  0.38253542
   0.69616700  0.14233300  0.19117800
   0.52982641  0.05910194  0.28473294
   0.86283300  0.22566700  0.09477000
   0.86671765  0.22755920  0.38251066
   0.94616700  0.14233300  0.19117800
   0.77932387  0.05913939  0.28472720
   0.11283300  0.47566700  0.09477000
   0.11094396  0.47183049  0.38251567
   0.19616700  0.39233300  0.19117800
   0.02953141  0.30901187  0.28645662
   0.36283300  0.47566700  0.09477000
   0.36277200  0.47554750  0.37714213
   0.44616700  0.39233300  0.19117800
   0.27933184  0.30861538  0.28471016
   0.61283300  0.47566700  0.09477000
   0.61084262  0.47170806  0.38256243
   0.69616700  0.39233300  0.19117800
   0.52945895  0.30891242  0.28647107
   0.86283300  0.47566700  0.09477000
   0.86279672  0.47556828  0.37714388
   0.94616700  0.39233300  0.19117800
   0.77930660  0.30860657  0.28472030
   0.11283300  0.72566700  0.09477000
   0.11087517  0.72755880  0.38250166
   0.19616700  0.64233300  0.19117800
   0.02980650  0.55913896  0.28471717
   0.36283300  0.72566700  0.09477000
   0.36665804  0.72754397  0.38253097
   0.44616700  0.64233300  0.19117800
   0.27934363  0.55915500  0.28472150
   0.61283300  0.72566700  0.09477000
   0.61083800  0.72745936  0.38254628
   0.69616700  0.64233300  0.19117800
   0.52982286  0.55910391  0.28473328
   0.86283300  0.72566700  0.09477000
   0.86660831  0.72749218  0.38251312
   0.94616700  0.64233300  0.19117800
   0.77927720  0.55909274  0.28472939
   0.11283300  0.97566700  0.09477000
   0.11086335  0.97178854  0.38251636
   0.19616700  0.89233300  0.19117800
   0.02946358  0.80897569  0.28646295
   0.36283300  0.97566700  0.09477000
   0.36275968  0.97554825  0.37713827
   0.44616700  0.89233300  0.19117800
   0.27930506  0.80861333  0.28471008
   0.61283300  0.97566700  0.09477000
   0.61091785  0.97176753  0.38255727
   0.69616700  0.89233300  0.19117800
   0.52948713  0.80896195  0.28647409
   0.86283300  0.97566700  0.09477000
   0.86280603  0.97557442  0.37714103
   0.94616700  0.89233300  0.19117800
   0.77928077  0.80860209  0.28472222
   0.19611409  0.14231243  0.43475347
   0.69614094  0.64224730  0.43470615
   0.19612898  0.64232866  0.43473714
   0.69626324  0.14234524  0.43471009
