  70  70   1   0
  0.2593906E+02  0.9967380E-09  0.9967380E-09  0.2110375E-08  0.1500000E-16
  1.000000000000000E-004
  CAR 
 SQS-NiFe                                
      7.27736696    -21.89861279  301      0.61706624      1.00000000
    -21.899  0.0000E+00  0.0000E+00
    -21.801  0.0000E+00  0.0000E+00
    -21.704  0.0000E+00  0.0000E+00
    -21.607  0.0000E+00  0.0000E+00
    -21.510  0.0000E+00  0.0000E+00
    -21.412  0.0000E+00  0.0000E+00
    -21.315  0.0000E+00  0.0000E+00
    -21.218  0.0000E+00  0.0000E+00
    -21.121  0.0000E+00  0.0000E+00
    -21.023  0.2083E-16  0.2025E-17
    -20.926  0.4344E-14  0.4245E-15
    -20.829  0.5562E-12  0.5451E-13
    -20.732  0.4474E-10  0.4406E-11
    -20.634  0.2263E-08  0.2245E-09
    -20.537  0.7208E-07  0.7235E-08
    -20.440  0.1447E-05  0.1480E-06
    -20.343  0.1834E-04  0.1932E-05
    -20.245  0.1469E-03  0.1622E-04
    -20.148  0.7449E-03  0.8867E-04
    -20.051  0.2393E-02  0.3214E-03
    -19.954  0.4875E-02  0.7955E-03
    -19.856  0.6303E-02  0.1408E-02
    -19.759  0.5171E-02  0.1911E-02
    -19.662  0.2693E-02  0.2173E-02
    -19.565  0.8893E-03  0.2260E-02
    -19.467  0.1861E-03  0.2278E-02
    -19.370  0.2466E-04  0.2280E-02
    -19.273  0.2065E-05  0.2280E-02
    -19.176  0.1204E-06  0.2281E-02
    -19.078  0.3474E-06  0.2281E-02
    -18.981  0.6661E-05  0.2281E-02
    -18.884  0.8177E-04  0.2289E-02
    -18.787  0.6367E-03  0.2351E-02
    -18.689  0.3148E-02  0.2657E-02
    -18.592  0.9893E-02  0.3619E-02
    -18.495  0.1977E-01  0.5542E-02
    -18.397  0.2515E-01  0.7989E-02
    -18.300  0.2036E-01  0.9969E-02
    -18.203  0.1049E-01  0.1099E-01
    -18.106  0.3434E-02  0.1132E-01
    -18.008  0.7140E-03  0.1139E-01
    -17.911  0.9418E-04  0.1140E-01
    -17.814  0.7868E-05  0.1140E-01
    -17.717  0.4158E-06  0.1140E-01
    -17.619  0.1388E-07  0.1140E-01
    -17.522  0.2921E-09  0.1140E-01
    -17.425  0.3872E-11  0.1140E-01
    -17.328  0.3228E-13  0.1140E-01
    -17.230  0.1718E-15  0.1140E-01
    -17.133  0.0000E+00  0.1140E-01
    -17.036  0.0000E+00  0.1140E-01
    -16.939  0.0000E+00  0.1140E-01
    -16.841  0.0000E+00  0.1140E-01
    -16.744  0.0000E+00  0.1140E-01
    -16.647  0.0000E+00  0.1140E-01
    -16.550  0.0000E+00  0.1140E-01
    -16.452  0.0000E+00  0.1140E-01
    -16.355  0.0000E+00  0.1140E-01
    -16.258  0.0000E+00  0.1140E-01
    -16.161  0.0000E+00  0.1140E-01
    -16.063  0.0000E+00  0.1140E-01
    -15.966  0.0000E+00  0.1140E-01
    -15.869  0.0000E+00  0.1140E-01
    -15.772  0.0000E+00  0.1140E-01
    -15.674  0.0000E+00  0.1140E-01
    -15.577  0.0000E+00  0.1140E-01
    -15.480  0.0000E+00  0.1140E-01
    -15.383  0.0000E+00  0.1140E-01
    -15.285  0.0000E+00  0.1140E-01
    -15.188  0.0000E+00  0.1140E-01
    -15.091  0.0000E+00  0.1140E-01
    -14.994  0.0000E+00  0.1140E-01
    -14.896  0.0000E+00  0.1140E-01
    -14.799  0.0000E+00  0.1140E-01
    -14.702  0.0000E+00  0.1140E-01
    -14.605  0.0000E+00  0.1140E-01
    -14.507  0.0000E+00  0.1140E-01
    -14.410  0.0000E+00  0.1140E-01
    -14.313  0.0000E+00  0.1140E-01
    -14.216  0.0000E+00  0.1140E-01
    -14.118  0.0000E+00  0.1140E-01
    -14.021  0.0000E+00  0.1140E-01
    -13.924  0.0000E+00  0.1140E-01
    -13.827  0.0000E+00  0.1140E-01
    -13.729  0.0000E+00  0.1140E-01
    -13.632  0.0000E+00  0.1140E-01
    -13.535  0.0000E+00  0.1140E-01
    -13.438  0.0000E+00  0.1140E-01
    -13.340  0.0000E+00  0.1140E-01
    -13.243  0.0000E+00  0.1140E-01
    -13.146  0.0000E+00  0.1140E-01
    -13.049  0.0000E+00  0.1140E-01
    -12.951  0.0000E+00  0.1140E-01
    -12.854  0.0000E+00  0.1140E-01
    -12.757  0.0000E+00  0.1140E-01
    -12.660  0.0000E+00  0.1140E-01
    -12.562  0.0000E+00  0.1140E-01
    -12.465  0.0000E+00  0.1140E-01
    -12.368  0.0000E+00  0.1140E-01
    -12.271  0.0000E+00  0.1140E-01
    -12.173  0.0000E+00  0.1140E-01
    -12.076  0.0000E+00  0.1140E-01
    -11.979  0.0000E+00  0.1140E-01
    -11.882  0.0000E+00  0.1140E-01
    -11.784  0.0000E+00  0.1140E-01
    -11.687  0.0000E+00  0.1140E-01
    -11.590  0.0000E+00  0.1140E-01
    -11.493  0.0000E+00  0.1140E-01
    -11.395  0.0000E+00  0.1140E-01
    -11.298  0.0000E+00  0.1140E-01
    -11.201  0.0000E+00  0.1140E-01
    -11.104  0.0000E+00  0.1140E-01
    -11.006  0.0000E+00  0.1140E-01
    -10.909  0.0000E+00  0.1140E-01
    -10.812  0.0000E+00  0.1140E-01
    -10.714  0.0000E+00  0.1140E-01
    -10.617  0.0000E+00  0.1140E-01
    -10.520  0.0000E+00  0.1140E-01
    -10.423  0.0000E+00  0.1140E-01
    -10.325  0.0000E+00  0.1140E-01
    -10.228  0.0000E+00  0.1140E-01
    -10.131  0.0000E+00  0.1140E-01
    -10.034  0.0000E+00  0.1140E-01
     -9.936  0.0000E+00  0.1140E-01
     -9.839  0.0000E+00  0.1140E-01
     -9.742  0.0000E+00  0.1140E-01
     -9.645  0.0000E+00  0.1140E-01
     -9.547  0.7680E-16  0.1140E-01
     -9.450  0.1395E-13  0.1140E-01
     -9.353  0.1603E-11  0.1140E-01
     -9.256  0.1158E-09  0.1140E-01
     -9.158  0.5262E-08  0.1140E-01
     -9.061  0.1506E-06  0.1140E-01
     -8.964  0.2717E-05  0.1140E-01
     -8.867  0.3095E-04  0.1141E-01
     -8.769  0.2230E-03  0.1143E-01
     -8.672  0.1017E-02  0.1153E-01
     -8.575  0.2939E-02  0.1181E-01
     -8.478  0.5388E-02  0.1234E-01
     -8.380  0.6270E-02  0.1295E-01
     -8.283  0.4641E-02  0.1340E-01
     -8.186  0.2274E-02  0.1362E-01
     -8.089  0.1220E-02  0.1374E-01
     -7.991  0.2128E-02  0.1394E-01
     -7.894  0.4451E-02  0.1438E-01
     -7.797  0.6225E-02  0.1498E-01
     -7.700  0.5541E-02  0.1552E-01
     -7.602  0.3131E-02  0.1583E-01
     -7.505  0.1122E-02  0.1593E-01
     -7.408  0.2550E-03  0.1596E-01
     -7.311  0.3667E-04  0.1596E-01
     -7.213  0.3335E-05  0.1596E-01
     -7.116  0.1999E-06  0.1596E-01
     -7.019  0.2313E-06  0.1596E-01
     -6.922  0.3815E-05  0.1596E-01
     -6.824  0.4097E-04  0.1597E-01
     -6.727  0.2783E-03  0.1599E-01
     -6.630  0.1198E-02  0.1611E-01
     -6.533  0.3281E-02  0.1643E-01
     -6.435  0.5832E-02  0.1700E-01
     -6.338  0.7379E-02  0.1772E-01
     -6.241  0.9137E-02  0.1860E-01
     -6.144  0.1514E-01  0.2008E-01
     -6.046  0.2568E-01  0.2257E-01
     -5.949  0.3360E-01  0.2584E-01
     -5.852  0.3118E-01  0.2887E-01
     -5.755  0.1993E-01  0.3081E-01
     -5.657  0.8724E-02  0.3166E-01
     -5.560  0.3465E-02  0.3200E-01
     -5.463  0.4519E-02  0.3244E-01
     -5.366  0.1061E-01  0.3347E-01
     -5.268  0.1914E-01  0.3533E-01
     -5.171  0.2717E-01  0.3797E-01
     -5.074  0.3538E-01  0.4141E-01
     -4.977  0.4497E-01  0.4579E-01
     -4.879  0.5056E-01  0.5070E-01
     -4.782  0.4463E-01  0.5504E-01
     -4.685  0.3005E-01  0.5797E-01
     -4.588  0.2027E-01  0.5994E-01
     -4.490  0.2423E-01  0.6230E-01
     -4.393  0.3630E-01  0.6583E-01
     -4.296  0.4328E-01  0.7004E-01
     -4.199  0.3962E-01  0.7389E-01
     -4.101  0.3036E-01  0.7684E-01
     -4.004  0.2141E-01  0.7892E-01
     -3.907  0.1610E-01  0.8049E-01
     -3.810  0.1715E-01  0.8216E-01
     -3.712  0.2584E-01  0.8467E-01
     -3.615  0.3964E-01  0.8853E-01
     -3.518  0.5300E-01  0.9368E-01
     -3.420  0.6346E-01  0.9985E-01
     -3.323  0.7130E-01  0.1068E+00
     -3.226  0.7778E-01  0.1144E+00
     -3.129  0.9060E-01  0.1232E+00
     -3.031  0.1134E+00  0.1342E+00
     -2.934  0.1323E+00  0.1471E+00
     -2.837  0.1322E+00  0.1599E+00
     -2.740  0.1139E+00  0.1710E+00
     -2.642  0.9427E-01  0.1802E+00
     -2.545  0.9478E-01  0.1894E+00
     -2.448  0.1156E+00  0.2006E+00
     -2.351  0.1300E+00  0.2133E+00
     -2.253  0.1234E+00  0.2253E+00
     -2.156  0.1155E+00  0.2365E+00
     -2.059  0.1252E+00  0.2487E+00
     -1.962  0.1421E+00  0.2625E+00
     -1.864  0.1491E+00  0.2770E+00
     -1.767  0.1496E+00  0.2915E+00
     -1.670  0.1525E+00  0.3064E+00
     -1.573  0.1555E+00  0.3215E+00
     -1.475  0.1596E+00  0.3370E+00
     -1.378  0.1751E+00  0.3540E+00
     -1.281  0.2030E+00  0.3738E+00
     -1.184  0.2308E+00  0.3962E+00
     -1.086  0.2458E+00  0.4201E+00
     -0.989  0.2431E+00  0.4438E+00
     -0.892  0.2192E+00  0.4651E+00
     -0.795  0.1812E+00  0.4827E+00
     -0.697  0.1550E+00  0.4978E+00
     -0.600  0.1600E+00  0.5134E+00
     -0.503  0.1877E+00  0.5316E+00
     -0.406  0.2128E+00  0.5523E+00
     -0.308  0.2225E+00  0.5739E+00
     -0.211  0.2256E+00  0.5959E+00
     -0.114  0.2280E+00  0.6181E+00
     -0.017  0.2209E+00  0.6396E+00
      0.081  0.2012E+00  0.6591E+00
      0.178  0.1781E+00  0.6764E+00
      0.275  0.1657E+00  0.6926E+00
      0.372  0.1760E+00  0.7097E+00
      0.470  0.2087E+00  0.7300E+00
      0.567  0.2385E+00  0.7532E+00
      0.664  0.2298E+00  0.7755E+00
      0.761  0.1770E+00  0.7927E+00
      0.859  0.1098E+00  0.8034E+00
      0.956  0.5674E-01  0.8089E+00
      1.053  0.2728E-01  0.8116E+00
      1.150  0.1839E-01  0.8134E+00
      1.248  0.1959E-01  0.8153E+00
      1.345  0.1979E-01  0.8172E+00
      1.442  0.1861E-01  0.8190E+00
      1.539  0.2342E-01  0.8213E+00
      1.637  0.3304E-01  0.8245E+00
      1.734  0.3626E-01  0.8280E+00
      1.831  0.3008E-01  0.8309E+00
      1.928  0.2600E-01  0.8335E+00
      2.026  0.3265E-01  0.8367E+00
      2.123  0.4192E-01  0.8407E+00
      2.220  0.3950E-01  0.8446E+00
      2.317  0.2518E-01  0.8470E+00
      2.415  0.1167E-01  0.8482E+00
      2.512  0.8354E-02  0.8490E+00
      2.609  0.1677E-01  0.8506E+00
      2.706  0.3255E-01  0.8538E+00
      2.804  0.4524E-01  0.8582E+00
      2.901  0.4575E-01  0.8626E+00
      2.998  0.3606E-01  0.8661E+00
      3.095  0.2721E-01  0.8688E+00
      3.193  0.2958E-01  0.8716E+00
      3.290  0.4277E-01  0.8758E+00
      3.387  0.5376E-01  0.8810E+00
      3.484  0.5136E-01  0.8860E+00
      3.582  0.3833E-01  0.8898E+00
      3.679  0.2372E-01  0.8921E+00
      3.776  0.1236E-01  0.8933E+00
      3.874  0.5167E-02  0.8938E+00
      3.971  0.1765E-02  0.8939E+00
      4.068  0.1475E-02  0.8941E+00
      4.165  0.4731E-02  0.8945E+00
      4.263  0.1277E-01  0.8958E+00
      4.360  0.2358E-01  0.8981E+00
      4.457  0.3046E-01  0.9010E+00
      4.554  0.2877E-01  0.9038E+00
      4.652  0.2114E-01  0.9059E+00
      4.749  0.1402E-01  0.9073E+00
      4.846  0.1254E-01  0.9085E+00
      4.943  0.1667E-01  0.9101E+00
      5.041  0.2006E-01  0.9120E+00
      5.138  0.1790E-01  0.9138E+00
      5.235  0.1294E-01  0.9150E+00
      5.332  0.8837E-02  0.9159E+00
      5.430  0.5401E-02  0.9164E+00
      5.527  0.2462E-02  0.9167E+00
      5.624  0.7507E-03  0.9167E+00
      5.721  0.1472E-03  0.9168E+00
      5.819  0.1835E-04  0.9168E+00
      5.916  0.1447E-05  0.9168E+00
      6.013  0.7209E-07  0.9168E+00
      6.110  0.2263E-08  0.9168E+00
      6.208  0.4474E-10  0.9168E+00
      6.305  0.5562E-12  0.9168E+00
      6.402  0.4342E-14  0.9168E+00
      6.499  0.2083E-16  0.9168E+00
      6.597  0.0000E+00  0.9168E+00
      6.694  0.0000E+00  0.9168E+00
      6.791  0.0000E+00  0.9168E+00
      6.888  0.0000E+00  0.9168E+00
      6.986  0.0000E+00  0.9168E+00
      7.083  0.0000E+00  0.9168E+00
      7.180  0.0000E+00  0.9168E+00
      7.277  0.0000E+00  0.9168E+00
      7.27736696    -21.89861279  301      0.61706624      1.00000000
    -21.899  0.0000E+00  0.0000E+00  0.0000E+00
    -21.801  0.0000E+00  0.0000E+00  0.0000E+00
    -21.704  0.0000E+00  0.0000E+00  0.0000E+00
    -21.607  0.0000E+00  0.0000E+00  0.0000E+00
    -21.510  0.0000E+00  0.0000E+00  0.0000E+00
    -21.412  0.0000E+00  0.0000E+00  0.0000E+00
    -21.315  0.0000E+00  0.0000E+00  0.0000E+00
    -21.218  0.0000E+00  0.0000E+00  0.0000E+00
    -21.121  0.0000E+00  0.0000E+00  0.0000E+00
    -21.023  0.1877E-25  0.9257E-25  0.6017E-26
    -20.926  0.3914E-23  0.1931E-22  0.1255E-23
    -20.829  0.5011E-21  0.2472E-20  0.1607E-21
    -20.732  0.4031E-19  0.1989E-18  0.1293E-19
    -20.634  0.2039E-17  0.1006E-16  0.6539E-18
    -20.537  0.6495E-16  0.3204E-15  0.2083E-16
    -20.440  0.1304E-14  0.6433E-14  0.4181E-15
    -20.343  0.1653E-13  0.8152E-13  0.5299E-14
    -20.245  0.1324E-12  0.6531E-12  0.4245E-13
    -20.148  0.6712E-12  0.3311E-11  0.2152E-12
    -20.051  0.2156E-11  0.1064E-10  0.6914E-12
    -19.954  0.4393E-11  0.2167E-10  0.1408E-11
    -19.856  0.5679E-11  0.2801E-10  0.1821E-11
    -19.759  0.4660E-11  0.2299E-10  0.1494E-11
    -19.662  0.2426E-11  0.1197E-10  0.7779E-12
    -19.565  0.8013E-12  0.3953E-11  0.2569E-12
    -19.467  0.1677E-12  0.8272E-12  0.5377E-13
    -19.370  0.2222E-13  0.1096E-12  0.7123E-14
    -19.273  0.1866E-14  0.9181E-14  0.5973E-15
    -19.176  0.3563E-15  0.6453E-15  0.6726E-16
    -19.078  0.7692E-14  0.4824E-14  0.1090E-14
    -18.981  0.1449E-12  0.9133E-13  0.2100E-13
    -18.884  0.1730E-11  0.1099E-11  0.2565E-12
    -18.787  0.1310E-10  0.8390E-11  0.1987E-11
    -18.689  0.6300E-10  0.4068E-10  0.9768E-11
    -18.592  0.1926E-09  0.1254E-09  0.3053E-10
    -18.495  0.3746E-09  0.2460E-09  0.6068E-10
    -18.397  0.4639E-09  0.3072E-09  0.7674E-10
    -18.300  0.3658E-09  0.2443E-09  0.6176E-10
    -18.203  0.1837E-09  0.1237E-09  0.3162E-10
    -18.106  0.5866E-10  0.3984E-10  0.1029E-10
    -18.008  0.1191E-10  0.8156E-11  0.2128E-11
    -17.911  0.1535E-11  0.1060E-11  0.2790E-12
    -17.814  0.1255E-12  0.8728E-13  0.2317E-13
    -17.717  0.6491E-14  0.4550E-14  0.1217E-14
    -17.619  0.2123E-15  0.1499E-15  0.4039E-16
    -17.522  0.4384E-17  0.3118E-17  0.8452E-18
    -17.425  0.5708E-19  0.4087E-19  0.1114E-19
    -17.328  0.4679E-21  0.3372E-21  0.9237E-22
    -17.230  0.2459E-23  0.1781E-23  0.4886E-24
    -17.133  0.0000E+00  0.0000E+00  0.0000E+00
    -17.036  0.0000E+00  0.0000E+00  0.0000E+00
    -16.939  0.0000E+00  0.0000E+00  0.0000E+00
    -16.841  0.0000E+00  0.0000E+00  0.0000E+00
    -16.744  0.0000E+00  0.0000E+00  0.0000E+00
    -16.647  0.0000E+00  0.0000E+00  0.0000E+00
    -16.550  0.0000E+00  0.0000E+00  0.0000E+00
    -16.452  0.0000E+00  0.0000E+00  0.0000E+00
    -16.355  0.0000E+00  0.0000E+00  0.0000E+00
    -16.258  0.0000E+00  0.0000E+00  0.0000E+00
    -16.161  0.0000E+00  0.0000E+00  0.0000E+00
    -16.063  0.0000E+00  0.0000E+00  0.0000E+00
    -15.966  0.0000E+00  0.0000E+00  0.0000E+00
    -15.869  0.0000E+00  0.0000E+00  0.0000E+00
    -15.772  0.0000E+00  0.0000E+00  0.0000E+00
    -15.674  0.0000E+00  0.0000E+00  0.0000E+00
    -15.577  0.0000E+00  0.0000E+00  0.0000E+00
    -15.480  0.0000E+00  0.0000E+00  0.0000E+00
    -15.383  0.0000E+00  0.0000E+00  0.0000E+00
    -15.285  0.0000E+00  0.0000E+00  0.0000E+00
    -15.188  0.0000E+00  0.0000E+00  0.0000E+00
    -15.091  0.0000E+00  0.0000E+00  0.0000E+00
    -14.994  0.0000E+00  0.0000E+00  0.0000E+00
    -14.896  0.0000E+00  0.0000E+00  0.0000E+00
    -14.799  0.0000E+00  0.0000E+00  0.0000E+00
    -14.702  0.0000E+00  0.0000E+00  0.0000E+00
    -14.605  0.0000E+00  0.0000E+00  0.0000E+00
    -14.507  0.0000E+00  0.0000E+00  0.0000E+00
    -14.410  0.0000E+00  0.0000E+00  0.0000E+00
    -14.313  0.0000E+00  0.0000E+00  0.0000E+00
    -14.216  0.0000E+00  0.0000E+00  0.0000E+00
    -14.118  0.0000E+00  0.0000E+00  0.0000E+00
    -14.021  0.0000E+00  0.0000E+00  0.0000E+00
    -13.924  0.0000E+00  0.0000E+00  0.0000E+00
    -13.827  0.0000E+00  0.0000E+00  0.0000E+00
    -13.729  0.0000E+00  0.0000E+00  0.0000E+00
    -13.632  0.0000E+00  0.0000E+00  0.0000E+00
    -13.535  0.0000E+00  0.0000E+00  0.0000E+00
    -13.438  0.0000E+00  0.0000E+00  0.0000E+00
    -13.340  0.0000E+00  0.0000E+00  0.0000E+00
    -13.243  0.0000E+00  0.0000E+00  0.0000E+00
    -13.146  0.0000E+00  0.0000E+00  0.0000E+00
    -13.049  0.0000E+00  0.0000E+00  0.0000E+00
    -12.951  0.0000E+00  0.0000E+00  0.0000E+00
    -12.854  0.0000E+00  0.0000E+00  0.0000E+00
    -12.757  0.0000E+00  0.0000E+00  0.0000E+00
    -12.660  0.0000E+00  0.0000E+00  0.0000E+00
    -12.562  0.0000E+00  0.0000E+00  0.0000E+00
    -12.465  0.0000E+00  0.0000E+00  0.0000E+00
    -12.368  0.0000E+00  0.0000E+00  0.0000E+00
    -12.271  0.0000E+00  0.0000E+00  0.0000E+00
    -12.173  0.0000E+00  0.0000E+00  0.0000E+00
    -12.076  0.0000E+00  0.0000E+00  0.0000E+00
    -11.979  0.0000E+00  0.0000E+00  0.0000E+00
    -11.882  0.0000E+00  0.0000E+00  0.0000E+00
    -11.784  0.0000E+00  0.0000E+00  0.0000E+00
    -11.687  0.0000E+00  0.0000E+00  0.0000E+00
    -11.590  0.0000E+00  0.0000E+00  0.0000E+00
    -11.493  0.0000E+00  0.0000E+00  0.0000E+00
    -11.395  0.0000E+00  0.0000E+00  0.0000E+00
    -11.298  0.0000E+00  0.0000E+00  0.0000E+00
    -11.201  0.0000E+00  0.0000E+00  0.0000E+00
    -11.104  0.0000E+00  0.0000E+00  0.0000E+00
    -11.006  0.0000E+00  0.0000E+00  0.0000E+00
    -10.909  0.0000E+00  0.0000E+00  0.0000E+00
    -10.812  0.0000E+00  0.0000E+00  0.0000E+00
    -10.714  0.0000E+00  0.0000E+00  0.0000E+00
    -10.617  0.0000E+00  0.0000E+00  0.0000E+00
    -10.520  0.0000E+00  0.0000E+00  0.0000E+00
    -10.423  0.0000E+00  0.0000E+00  0.0000E+00
    -10.325  0.0000E+00  0.0000E+00  0.0000E+00
    -10.228  0.0000E+00  0.0000E+00  0.0000E+00
    -10.131  0.0000E+00  0.0000E+00  0.0000E+00
    -10.034  0.0000E+00  0.0000E+00  0.0000E+00
     -9.936  0.0000E+00  0.0000E+00  0.0000E+00
     -9.839  0.0000E+00  0.0000E+00  0.0000E+00
     -9.742  0.0000E+00  0.0000E+00  0.0000E+00
     -9.645  0.0000E+00  0.0000E+00  0.0000E+00
     -9.547  0.4426E-17  0.7071E-18  0.5089E-20
     -9.450  0.8037E-15  0.1284E-15  0.9240E-18
     -9.353  0.9240E-13  0.1476E-13  0.1062E-15
     -9.256  0.6674E-11  0.1066E-11  0.7674E-14
     -9.158  0.3032E-09  0.4845E-10  0.3487E-12
     -9.061  0.8677E-08  0.1386E-08  0.9977E-11
     -8.964  0.1566E-06  0.2501E-07  0.1800E-09
     -8.867  0.1784E-05  0.2850E-06  0.2051E-08
     -8.769  0.1285E-04  0.2053E-05  0.1477E-07
     -8.672  0.5860E-04  0.9363E-05  0.6738E-07
     -8.575  0.1694E-03  0.2706E-04  0.1947E-06
     -8.478  0.3107E-03  0.4963E-04  0.3571E-06
     -8.380  0.3650E-03  0.5818E-04  0.4166E-06
     -8.283  0.3178E-03  0.4901E-04  0.3236E-06
     -8.186  0.5689E-03  0.7558E-04  0.2904E-06
     -8.089  0.2481E-02  0.3120E-03  0.8503E-06
     -7.991  0.8527E-02  0.1068E-02  0.2824E-05
     -7.894  0.1884E-01  0.2359E-02  0.6226E-05
     -7.797  0.2642E-01  0.3310E-02  0.8733E-05
     -7.700  0.2353E-01  0.2947E-02  0.7775E-05
     -7.602  0.1329E-01  0.1665E-02  0.4394E-05
     -7.505  0.4765E-02  0.5968E-03  0.1575E-05
     -7.408  0.1082E-02  0.1356E-03  0.3578E-06
     -7.311  0.1557E-03  0.1950E-04  0.5146E-07
     -7.213  0.1416E-04  0.1774E-05  0.4751E-08
     -7.116  0.8999E-06  0.1056E-06  0.3294E-08
     -7.019  0.2362E-05  0.1033E-06  0.8156E-07
     -6.922  0.3967E-04  0.1694E-05  0.1387E-05
     -6.824  0.4260E-03  0.1819E-04  0.1489E-04
     -6.727  0.2893E-02  0.1236E-03  0.1011E-03
     -6.630  0.1244E-01  0.5321E-03  0.4351E-03
     -6.533  0.3394E-01  0.1461E-02  0.1190E-02
     -6.435  0.5902E-01  0.2631E-02  0.2098E-02
     -6.338  0.6684E-01  0.3561E-02  0.2572E-02
     -6.241  0.5524E-01  0.5386E-02  0.2999E-02
     -6.144  0.4913E-01  0.1097E-01  0.5071E-02
     -6.046  0.6241E-01  0.2066E-01  0.9495E-02
     -5.949  0.7743E-01  0.2851E-01  0.1368E-01
     -5.852  0.7071E-01  0.2706E-01  0.1362E-01
     -5.755  0.4409E-01  0.1728E-01  0.9086E-02
     -5.657  0.1906E-01  0.7498E-02  0.4088E-02
     -5.560  0.1021E-01  0.3418E-02  0.1761E-02
     -5.463  0.2069E-01  0.5835E-02  0.2678E-02
     -5.366  0.4797E-01  0.1379E-01  0.6557E-02
     -5.268  0.7840E-01  0.2316E-01  0.1200E-01
     -5.171  0.9828E-01  0.2815E-01  0.1670E-01
     -5.074  0.1128E+00  0.2865E-01  0.2009E-01
     -4.977  0.1235E+00  0.2890E-01  0.2243E-01
     -4.879  0.1129E+00  0.2835E-01  0.2175E-01
     -4.782  0.7831E-01  0.2300E-01  0.1662E-01
     -4.685  0.4458E-01  0.1449E-01  0.1066E-01
     -4.588  0.3935E-01  0.1049E-01  0.1106E-01
     -4.490  0.7433E-01  0.1680E-01  0.2291E-01
     -4.393  0.1314E+00  0.3093E-01  0.4212E-01
     -4.296  0.1702E+00  0.4209E-01  0.5513E-01
     -4.199  0.1746E+00  0.4181E-01  0.5331E-01
     -4.101  0.1576E+00  0.3256E-01  0.4223E-01
     -4.004  0.1215E+00  0.2107E-01  0.3229E-01
     -3.907  0.7274E-01  0.1179E-01  0.3062E-01
     -3.810  0.3565E-01  0.7490E-02  0.4196E-01
     -3.712  0.2154E-01  0.9361E-02  0.7151E-01
     -3.615  0.2384E-01  0.1739E-01  0.1178E+00
     -3.518  0.3893E-01  0.3122E-01  0.1647E+00
     -3.420  0.7059E-01  0.4953E-01  0.2002E+00
     -3.323  0.1164E+00  0.6673E-01  0.2403E+00
     -3.226  0.1654E+00  0.7631E-01  0.3406E+00
     -3.129  0.2102E+00  0.8259E-01  0.5715E+00
     -3.031  0.2396E+00  0.9436E-01  0.8890E+00
     -2.934  0.2347E+00  0.1066E+00  0.1070E+01
     -2.837  0.1900E+00  0.1049E+00  0.9586E+00
     -2.740  0.1239E+00  0.8402E-01  0.6854E+00
     -2.642  0.6498E-01  0.5658E-01  0.4975E+00
     -2.545  0.3294E-01  0.4210E-01  0.5136E+00
     -2.448  0.2504E-01  0.4364E-01  0.6678E+00
     -2.351  0.2448E-01  0.4714E-01  0.8005E+00
     -2.253  0.2069E-01  0.4650E-01  0.8686E+00
     -2.156  0.1641E-01  0.5273E-01  0.1023E+01
     -2.059  0.1665E-01  0.6995E-01  0.1332E+01
     -1.962  0.1909E-01  0.8159E-01  0.1596E+01
     -1.864  0.1921E-01  0.7632E-01  0.1665E+01
     -1.767  0.1855E-01  0.6561E-01  0.1673E+01
     -1.670  0.2018E-01  0.5963E-01  0.1687E+01
     -1.573  0.2283E-01  0.5536E-01  0.1606E+01
     -1.475  0.2834E-01  0.5985E-01  0.1559E+01
     -1.378  0.4812E-01  0.9687E-01  0.1921E+01
     -1.281  0.8837E-01  0.1726E+00  0.2801E+01
     -1.184  0.1278E+00  0.2403E+00  0.3797E+01
     -1.086  0.1328E+00  0.2377E+00  0.4425E+01
     -0.989  0.1019E+00  0.1708E+00  0.4530E+01
     -0.892  0.6363E-01  0.9932E-01  0.4009E+01
     -0.795  0.3671E-01  0.5491E-01  0.2904E+01
     -0.697  0.2150E-01  0.3285E-01  0.1835E+01
     -0.600  0.1387E-01  0.2351E-01  0.1413E+01
     -0.503  0.1044E-01  0.2086E-01  0.1602E+01
     -0.406  0.9398E-02  0.2047E-01  0.2063E+01
     -0.308  0.1056E-01  0.1981E-01  0.2669E+01
     -0.211  0.1441E-01  0.1931E-01  0.3426E+01
     -0.114  0.2049E-01  0.2059E-01  0.4006E+01
     -0.017  0.2602E-01  0.2503E-01  0.3928E+01
      0.081  0.2676E-01  0.3422E-01  0.3291E+01
      0.178  0.2153E-01  0.4759E-01  0.2684E+01
      0.275  0.1517E-01  0.5964E-01  0.2461E+01
      0.372  0.1311E-01  0.6602E-01  0.2606E+01
      0.470  0.1569E-01  0.7108E-01  0.2984E+01
      0.567  0.1964E-01  0.7801E-01  0.3303E+01
      0.664  0.2203E-01  0.7738E-01  0.3151E+01
      0.761  0.2192E-01  0.6120E-01  0.2399E+01
      0.859  0.1935E-01  0.3744E-01  0.1387E+01
      0.956  0.1614E-01  0.1939E-01  0.5966E+00
      1.053  0.1839E-01  0.1330E-01  0.2156E+00
      1.150  0.3019E-01  0.1802E-01  0.1264E+00
      1.248  0.4232E-01  0.2557E-01  0.1397E+00
      1.345  0.4039E-01  0.2851E-01  0.1362E+00
      1.442  0.2685E-01  0.3502E-01  0.1077E+00
      1.539  0.1651E-01  0.6347E-01  0.1060E+00
      1.637  0.1372E-01  0.1103E+00  0.1377E+00
      1.734  0.1232E-01  0.1394E+00  0.1531E+00
      1.831  0.1092E-01  0.1249E+00  0.1377E+00
      1.928  0.1557E-01  0.8825E-01  0.1467E+00
      2.026  0.2872E-01  0.6850E-01  0.2159E+00
      2.123  0.4103E-01  0.7017E-01  0.2842E+00
      2.220  0.3991E-01  0.6628E-01  0.2640E+00
      2.317  0.2654E-01  0.4493E-01  0.1662E+00
      2.415  0.1604E-01  0.2434E-01  0.8152E-01
      2.512  0.2323E-01  0.2828E-01  0.7843E-01
      2.609  0.5173E-01  0.7246E-01  0.1703E+00
      2.706  0.8353E-01  0.1550E+00  0.3031E+00
      2.804  0.8852E-01  0.2376E+00  0.3643E+00
      2.901  0.6280E-01  0.2655E+00  0.3024E+00
      2.998  0.3285E-01  0.2258E+00  0.1919E+00
      3.095  0.1945E-01  0.1728E+00  0.1312E+00
      3.193  0.2581E-01  0.1840E+00  0.1588E+00
      3.290  0.4461E-01  0.2736E+00  0.2398E+00
      3.387  0.5890E-01  0.3503E+00  0.2837E+00
      3.484  0.5432E-01  0.3184E+00  0.2366E+00
      3.582  0.3560E-01  0.2016E+00  0.1436E+00
      3.679  0.1752E-01  0.9133E-01  0.7166E-01
      3.776  0.6936E-02  0.3079E-01  0.3363E-01
      3.874  0.2351E-02  0.8079E-02  0.1435E-01
      3.971  0.1308E-02  0.2545E-02  0.5445E-02
      4.068  0.4259E-02  0.6176E-02  0.6113E-02
      4.165  0.1544E-01  0.2449E-01  0.2141E-01
      4.263  0.3706E-01  0.6666E-01  0.5863E-01
      4.360  0.5812E-01  0.1219E+00  0.1083E+00
      4.457  0.6076E-01  0.1527E+00  0.1384E+00
      4.554  0.4401E-01  0.1334E+00  0.1283E+00
      4.652  0.2359E-01  0.8321E-01  0.9211E-01
      4.749  0.1021E-01  0.4135E-01  0.5686E-01
      4.846  0.3935E-02  0.2807E-01  0.4018E-01
      4.943  0.1702E-02  0.3632E-01  0.4275E-01
      5.041  0.1234E-02  0.4511E-01  0.4712E-01
      5.138  0.1424E-02  0.4167E-01  0.3819E-01
      5.235  0.1861E-02  0.3190E-01  0.2183E-01
      5.332  0.2015E-02  0.2317E-01  0.9926E-02
      5.430  0.1510E-02  0.1466E-01  0.4221E-02
      5.527  0.7351E-03  0.6761E-02  0.1616E-02
      5.624  0.2284E-03  0.2069E-02  0.4648E-03
      5.721  0.4502E-04  0.4061E-03  0.8965E-04
      5.819  0.5619E-05  0.5063E-04  0.1112E-04
      5.916  0.4434E-06  0.3993E-05  0.8763E-06
      6.013  0.2208E-07  0.1989E-06  0.4363E-07
      6.110  0.6933E-09  0.6244E-08  0.1370E-08
      6.208  0.1371E-10  0.1234E-09  0.2707E-10
      6.305  0.1704E-12  0.1534E-11  0.3365E-12
      6.402  0.1330E-14  0.1198E-13  0.2628E-14
      6.499  0.6380E-17  0.5746E-16  0.1260E-16
      6.597  0.0000E+00  0.0000E+00  0.0000E+00
      6.694  0.0000E+00  0.0000E+00  0.0000E+00
      6.791  0.0000E+00  0.0000E+00  0.0000E+00
      6.888  0.0000E+00  0.0000E+00  0.0000E+00
      6.986  0.0000E+00  0.0000E+00  0.0000E+00
      7.083  0.0000E+00  0.0000E+00  0.0000E+00
      7.180  0.0000E+00  0.0000E+00  0.0000E+00
      7.277  0.0000E+00  0.0000E+00  0.0000E+00
      7.27736696    -21.89861279  301      0.61706624      1.00000000
    -21.899  0.0000E+00  0.0000E+00  0.0000E+00
    -21.801  0.0000E+00  0.0000E+00  0.0000E+00
    -21.704  0.0000E+00  0.0000E+00  0.0000E+00
    -21.607  0.0000E+00  0.0000E+00  0.0000E+00
    -21.510  0.0000E+00  0.0000E+00  0.0000E+00
    -21.412  0.0000E+00  0.0000E+00  0.0000E+00
    -21.315  0.0000E+00  0.0000E+00  0.0000E+00
    -21.218  0.0000E+00  0.0000E+00  0.0000E+00
    -21.121  0.0000E+00  0.0000E+00  0.0000E+00
    -21.023  0.4430E-18  0.4866E-18  0.3524E-18
    -20.926  0.9239E-16  0.1015E-15  0.7350E-16
    -20.829  0.1183E-13  0.1299E-13  0.9410E-14
    -20.732  0.9516E-12  0.1045E-11  0.7570E-12
    -20.634  0.4814E-10  0.5288E-10  0.3829E-10
    -20.537  0.1533E-08  0.1684E-08  0.1220E-08
    -20.440  0.3078E-07  0.3381E-07  0.2449E-07
    -20.343  0.3901E-06  0.4285E-06  0.3103E-06
    -20.245  0.3125E-05  0.3433E-05  0.2486E-05
    -20.148  0.1584E-04  0.1740E-04  0.1260E-04
    -20.051  0.5090E-04  0.5591E-04  0.4049E-04
    -19.954  0.1037E-03  0.1139E-03  0.8249E-04
    -19.856  0.1341E-03  0.1473E-03  0.1066E-03
    -19.759  0.1100E-03  0.1208E-03  0.8750E-04
    -19.662  0.5727E-04  0.6291E-04  0.4556E-04
    -19.565  0.1892E-04  0.2078E-04  0.1505E-04
    -19.467  0.3959E-05  0.4348E-05  0.3149E-05
    -19.370  0.5244E-06  0.5760E-06  0.4172E-06
    -19.273  0.4454E-07  0.4901E-07  0.3561E-07
    -19.176  0.3369E-07  0.4156E-07  0.3571E-07
    -19.078  0.9946E-06  0.1241E-05  0.1075E-05
    -18.981  0.1990E-04  0.2488E-04  0.2153E-04
    -18.884  0.2515E-03  0.3152E-03  0.2724E-03
    -18.787  0.2011E-02  0.2525E-02  0.2180E-02
    -18.689  0.1018E-01  0.1281E-01  0.1105E-01
    -18.592  0.3268E-01  0.4118E-01  0.3548E-01
    -18.495  0.6657E-01  0.8402E-01  0.7232E-01
    -18.397  0.8609E-01  0.1088E+00  0.9357E-01
    -18.300  0.7069E-01  0.8945E-01  0.7688E-01
    -18.203  0.3685E-01  0.4668E-01  0.4009E-01
    -18.106  0.1219E-01  0.1546E-01  0.1327E-01
    -18.008  0.2555E-02  0.3244E-02  0.2783E-02
    -17.911  0.3393E-03  0.4310E-03  0.3696E-03
    -17.814  0.2848E-04  0.3621E-04  0.3103E-04
    -17.717  0.1510E-05  0.1921E-05  0.1646E-05
    -17.619  0.5048E-07  0.6426E-07  0.5504E-07
    -17.522  0.1063E-08  0.1354E-08  0.1159E-08
    -17.425  0.1408E-10  0.1794E-10  0.1536E-10
    -17.328  0.1172E-12  0.1494E-12  0.1279E-12
    -17.230  0.6240E-15  0.7958E-15  0.6809E-15
    -17.133  0.0000E+00  0.0000E+00  0.0000E+00
    -17.036  0.0000E+00  0.0000E+00  0.0000E+00
    -16.939  0.0000E+00  0.0000E+00  0.0000E+00
    -16.841  0.0000E+00  0.0000E+00  0.0000E+00
    -16.744  0.0000E+00  0.0000E+00  0.0000E+00
    -16.647  0.0000E+00  0.0000E+00  0.0000E+00
    -16.550  0.0000E+00  0.0000E+00  0.0000E+00
    -16.452  0.0000E+00  0.0000E+00  0.0000E+00
    -16.355  0.0000E+00  0.0000E+00  0.0000E+00
    -16.258  0.0000E+00  0.0000E+00  0.0000E+00
    -16.161  0.0000E+00  0.0000E+00  0.0000E+00
    -16.063  0.0000E+00  0.0000E+00  0.0000E+00
    -15.966  0.0000E+00  0.0000E+00  0.0000E+00
    -15.869  0.0000E+00  0.0000E+00  0.0000E+00
    -15.772  0.0000E+00  0.0000E+00  0.0000E+00
    -15.674  0.0000E+00  0.0000E+00  0.0000E+00
    -15.577  0.0000E+00  0.0000E+00  0.0000E+00
    -15.480  0.0000E+00  0.0000E+00  0.0000E+00
    -15.383  0.0000E+00  0.0000E+00  0.0000E+00
    -15.285  0.0000E+00  0.0000E+00  0.0000E+00
    -15.188  0.0000E+00  0.0000E+00  0.0000E+00
    -15.091  0.0000E+00  0.0000E+00  0.0000E+00
    -14.994  0.0000E+00  0.0000E+00  0.0000E+00
    -14.896  0.0000E+00  0.0000E+00  0.0000E+00
    -14.799  0.0000E+00  0.0000E+00  0.0000E+00
    -14.702  0.0000E+00  0.0000E+00  0.0000E+00
    -14.605  0.0000E+00  0.0000E+00  0.0000E+00
    -14.507  0.0000E+00  0.0000E+00  0.0000E+00
    -14.410  0.0000E+00  0.0000E+00  0.0000E+00
    -14.313  0.0000E+00  0.0000E+00  0.0000E+00
    -14.216  0.0000E+00  0.0000E+00  0.0000E+00
    -14.118  0.0000E+00  0.0000E+00  0.0000E+00
    -14.021  0.0000E+00  0.0000E+00  0.0000E+00
    -13.924  0.0000E+00  0.0000E+00  0.0000E+00
    -13.827  0.0000E+00  0.0000E+00  0.0000E+00
    -13.729  0.0000E+00  0.0000E+00  0.0000E+00
    -13.632  0.0000E+00  0.0000E+00  0.0000E+00
    -13.535  0.0000E+00  0.0000E+00  0.0000E+00
    -13.438  0.0000E+00  0.0000E+00  0.0000E+00
    -13.340  0.0000E+00  0.0000E+00  0.0000E+00
    -13.243  0.0000E+00  0.0000E+00  0.0000E+00