       N       E                     dE             d eps       ncg     rms          rms(c)
DAV:   1     0.611968547775E+04    0.61197E+04   -0.34869E+05   804   0.214E+03
DAV:   2     0.398225957214E+03   -0.57215E+04   -0.55275E+04   804   0.471E+02
DAV:   3    -0.276359321189E+03   -0.67459E+03   -0.61333E+03   804   0.188E+02
DAV:   4    -0.365007531251E+03   -0.88648E+02   -0.78325E+02  1095   0.550E+01
DAV:   5    -0.371134231126E+03   -0.61267E+01   -0.59219E+01   843   0.130E+01    0.948E+00
RMM:   6    -0.395990041314E+03   -0.24856E+02   -0.25970E+01   811   0.124E+01    0.651E+01
RMM:   7    -0.373774800508E+03    0.22215E+02   -0.13903E+01   808   0.105E+01    0.335E+01
RMM:   8    -0.371454998124E+03    0.23198E+01   -0.25212E+00   813   0.377E+00    0.192E+01
RMM:   9    -0.370902411309E+03    0.55259E+00   -0.73873E-01   819   0.206E+00    0.143E+01
RMM:  10    -0.370665078557E+03    0.23733E+00   -0.10414E+00   812   0.255E+00    0.103E+01
RMM:  11    -0.370314824769E+03    0.35025E+00   -0.48701E-01   811   0.193E+00    0.526E+00
RMM:  12    -0.370326129678E+03   -0.11305E-01   -0.23006E-01   810   0.126E+00    0.563E+00
RMM:  13    -0.370397685515E+03   -0.71556E-01   -0.18036E-01   809   0.112E+00    0.739E+00
RMM:  14    -0.370228347958E+03    0.16934E+00   -0.11989E-01   810   0.952E-01    0.284E+00
RMM:  15    -0.370268032621E+03   -0.39685E-01   -0.10915E-01   810   0.836E-01    0.419E+00
RMM:  16    -0.370218803217E+03    0.49229E-01   -0.60972E-02   809   0.682E-01    0.243E+00
RMM:  17    -0.370203306345E+03    0.15497E-01   -0.25017E-02   809   0.414E-01    0.147E+00
RMM:  18    -0.370208887166E+03   -0.55808E-02   -0.12817E-02   808   0.290E-01    0.198E+00
RMM:  19    -0.370197685557E+03    0.11202E-01   -0.76118E-03   809   0.242E-01    0.828E-01
RMM:  20    -0.370195315135E+03    0.23704E-02   -0.32657E-03   812   0.148E-01    0.347E-01
RMM:  21    -0.370196590316E+03   -0.12752E-02   -0.16903E-03   810   0.103E-01    0.679E-01
RMM:  22    -0.370195047148E+03    0.15432E-02   -0.10915E-03   810   0.924E-02    0.260E-01
RMM:  23    -0.370194834470E+03    0.21268E-03   -0.24355E-04   805   0.403E-02    0.122E-01
RMM:  24    -0.370195004758E+03   -0.17029E-03   -0.16047E-04   810   0.320E-02    0.238E-01
RMM:  25    -0.370194836058E+03    0.16870E-03   -0.10779E-04   810   0.287E-02    0.535E-02
RMM:  26    -0.370194864741E+03   -0.28683E-04   -0.33715E-05   798   0.149E-02    0.922E-02
RMM:  27    -0.370194881129E+03   -0.16389E-04   -0.22973E-05   802   0.127E-02    0.754E-02
RMM:  28    -0.370194876923E+03    0.42060E-05   -0.17276E-05   799   0.113E-02    0.276E-02
RMM:  29    -0.370194900928E+03   -0.24005E-04   -0.11071E-05   781   0.840E-03    0.462E-02
RMM:  30    -0.370194926506E+03   -0.25577E-04   -0.77843E-06   742   0.734E-03    0.270E-02
RMM:  31    -0.370194933854E+03   -0.73480E-05   -0.29553E-06   505   0.472E-03    0.161E-02
RMM:  32    -0.370194952948E+03   -0.19094E-04   -0.23031E-06   463   0.393E-03    0.248E-02
RMM:  33    -0.370194971207E+03   -0.18259E-04   -0.18699E-06   456   0.382E-03    0.143E-02
RMM:  34    -0.370194979937E+03   -0.87303E-05   -0.92122E-07   432   0.263E-03    0.777E-03
RMM:  35    -0.370195005540E+03   -0.25603E-04   -0.15917E-06   456   0.273E-03    0.138E-02
RMM:  36    -0.370195032562E+03   -0.27021E-04   -0.18173E-06   463   0.298E-03    0.622E-03
RMM:  37    -0.370195039345E+03   -0.67830E-05   -0.43942E-07   431   0.150E-03    0.715E-03
RMM:  38    -0.370195064877E+03   -0.25533E-04   -0.13536E-06   457   0.190E-03    0.115E-02
RMM:  39    -0.370195083626E+03   -0.18749E-04   -0.13260E-06   456   0.215E-03    0.616E-03
RMM:  40    -0.370195093398E+03   -0.97721E-05   -0.69673E-07   440   0.152E-03    0.707E-03
RMM:  41    -0.370195108655E+03   -0.15257E-04   -0.12966E-06   460   0.155E-03    0.438E-03
RMM:  42    -0.370195111544E+03   -0.28885E-05   -0.26022E-07   426   0.103E-03    0.299E-03
RMM:  43    -0.370195118909E+03   -0.73654E-05   -0.43808E-07   433   0.875E-04    0.446E-03
RMM:  44    -0.370195124272E+03   -0.53622E-05   -0.38840E-07   430   0.918E-04    0.163E-03
RMM:  45    -0.370195125320E+03   -0.10481E-05   -0.67716E-08   258   0.500E-04    0.113E-03
RMM:  46    -0.370195128350E+03   -0.30301E-05   -0.13266E-07   208   0.430E-04    0.115E-03
RMM:  47    -0.370195129168E+03   -0.81809E-06   -0.28978E-08   140   0.365E-04
   1 F= -.38836461E+03 E0= -.38633651E+03  d E =-.405620E+01
       N       E                     dE             d eps       ncg     rms          rms(c)
DAV:   1    -0.370192223635E+03    0.29047E-02   -0.12838E+00   810   0.113E+00    0.155E-01
RMM:   2    -0.370196080158E+03   -0.38565E-02   -0.26937E-02   813   0.242E-01    0.605E-01
RMM:   3    -0.370194554416E+03    0.15257E-02   -0.19820E-03   805   0.933E-02    0.192E-01
RMM:   4    -0.370195128655E+03   -0.57424E-03   -0.46131E-04   818   0.496E-02    0.509E-01
RMM:   5    -0.370194901382E+03    0.22727E-03   -0.23687E-04   807   0.399E-02    0.413E-01
RMM:   6    -0.370194507664E+03    0.39372E-03   -0.26643E-04   805   0.438E-02    0.205E-01
RMM:   7    -0.370194870443E+03   -0.36278E-03   -0.37968E-04   805   0.501E-02    0.377E-01
RMM:   8    -0.370194793951E+03    0.76492E-04   -0.57373E-04   809   0.603E-02    0.323E-01
RMM:   9    -0.370194410480E+03    0.38347E-03   -0.33383E-04   806   0.499E-02    0.115E-01
RMM:  10    -0.370194401136E+03    0.93439E-05   -0.81535E-05   804   0.226E-02    0.999E-02
RMM:  11    -0.370194416432E+03   -0.15296E-04   -0.51786E-05   804   0.188E-02    0.114E-01
RMM:  12    -0.370194372903E+03    0.43529E-04   -0.28744E-05   804   0.151E-02    0.381E-02
RMM:  13    -0.370194370534E+03    0.23687E-05   -0.98011E-06   758   0.801E-03    0.285E-02
RMM:  14    -0.370194369340E+03    0.11947E-05   -0.45267E-06   602   0.556E-03    0.245E-02
RMM:  15    -0.370194367770E+03    0.15691E-05   -0.27333E-06   469   0.500E-03    0.152E-02
RMM:  16    -0.370194370284E+03   -0.25131E-05   -0.26263E-06   473   0.431E-03    0.306E-02
RMM:  17    -0.370194367622E+03    0.26618E-05   -0.26434E-06   457   0.465E-03    0.113E-02
RMM:  18    -0.370194367446E+03    0.17617E-06   -0.67144E-07   411   0.243E-03
   2 F= -.38836384E+03 E0= -.38633574E+03  d E =-.405621E+01
       N       E                     dE             d eps       ncg     rms          rms(c)
DAV:   1    -0.370185178165E+03    0.91895E-02   -0.51271E+00   804   0.227E+00    0.313E-01
RMM:   2    -0.370201245728E+03   -0.16068E-01   -0.11326E-01   814   0.493E-01    0.122E+00
RMM:   3    -0.370195102985E+03    0.61427E-02   -0.86276E-03   805   0.193E-01    0.378E-01
RMM:   4    -0.370196594494E+03   -0.14915E-02   -0.22486E-03   816   0.112E-01    0.825E-01
RMM:   5    -0.370196640708E+03   -0.46214E-04   -0.10145E-03   807   0.863E-02    0.894E-01
RMM:   6    -0.370194969703E+03    0.16710E-02   -0.66126E-04   809   0.676E-02    0.446E-01
RMM:   7    -0.370196058884E+03   -0.10892E-02   -0.13095E-03   808   0.928E-02    0.699E-01
RMM:   8    -0.370196065100E+03   -0.62167E-05   -0.22844E-03   809   0.119E-01    0.657E-01
RMM:   9    -0.370194542990E+03    0.15221E-02   -0.14030E-03   807   0.102E-01    0.263E-01
RMM:  10    -0.370194477316E+03    0.65674E-04   -0.39962E-04   809   0.506E-02    0.223E-01
RMM:  11    -0.370194487803E+03   -0.10487E-04   -0.23880E-04   811   0.406E-02    0.220E-01
RMM:  12    -0.370194322897E+03    0.16491E-03   -0.12358E-04   806   0.310E-02    0.772E-02
RMM:  13    -0.370194320392E+03    0.25049E-05   -0.49118E-05   802   0.178E-02    0.739E-02
RMM:  14    -0.370194303168E+03    0.17225E-04   -0.23348E-05   806   0.130E-02    0.438E-02
RMM:  15    -0.370194300218E+03    0.29497E-05   -0.11288E-05   795   0.914E-03    0.371E-02
RMM:  16    -0.370194311816E+03   -0.11598E-04   -0.13147E-05   790   0.909E-03    0.694E-02
RMM:  17    -0.370194296541E+03    0.15276E-04   -0.13021E-05   793   0.930E-03    0.219E-02
RMM:  18    -0.370194295985E+03    0.55594E-06   -0.30637E-06   509   0.474E-03
   3 F= -.38836377E+03 E0= -.38633562E+03  d E =-.405631E+01
       N       E                     dE             d eps       ncg     rms          rms(c)
DAV:   1    -0.370189713920E+03    0.45826E-02   -0.25632E+00   804   0.159E+00    0.220E-01
RMM:   2    -0.370197888461E+03   -0.81745E-02   -0.57222E-02   814   0.345E-01    0.884E-01
RMM:   3    -0.370194796563E+03    0.30919E-02   -0.43095E-03   805   0.140E-01    0.315E-01
RMM:   4    -0.370195456724E+03   -0.66016E-03   -0.10210E-03   822   0.744E-02    0.595E-01
RMM:   5    -0.370195745840E+03   -0.28912E-03   -0.48003E-04   807   0.573E-02    0.693E-01
RMM:   6    -0.370194650849E+03    0.10950E-02   -0.47458E-04   806   0.584E-02    0.307E-01
RMM:   7    -0.370195042460E+03   -0.39161E-03   -0.60422E-04   807   0.629E-02    0.433E-01
RMM:   8    -0.370195343813E+03   -0.30135E-03   -0.12073E-03   809   0.865E-02    0.512E-01
RMM:   9    -0.370194478328E+03    0.86549E-03   -0.69760E-04   808   0.731E-02    0.209E-01
RMM:  10    -0.370194394592E+03    0.83735E-04   -0.21822E-04   807   0.375E-02    0.138E-01
RMM:  11    -0.370194444624E+03   -0.50032E-04   -0.13588E-04   808   0.298E-02    0.172E-01
RMM:  12    -0.370194340342E+03    0.10428E-03   -0.75390E-05   803   0.243E-02    0.575E-02
RMM:  13    -0.370194334057E+03    0.62859E-05   -0.21635E-05   798   0.119E-02    0.414E-02
RMM:  14    -0.370194332908E+03    0.11485E-05   -0.11096E-05   794   0.865E-03    0.433E-02
RMM:  15    -0.370194327925E+03    0.49826E-05   -0.61244E-06   728   0.690E-03    0.253E-02
RMM:  16    -0.370194330948E+03   -0.30224E-05   -0.64468E-06   734   0.644E-03    0.377E-02
RMM:  17    -0.370194326578E+03    0.43696E-05   -0.60396E-06   664   0.632E-03    0.176E-02
RMM:  18    -0.370194326042E+03    0.53592E-06   -0.17718E-06   424   0.383E-03
   4 F= -.38836380E+03 E0= -.38633568E+03  d E =-.405624E+01
       N       E                     dE             d eps       ncg     rms          rms(c)
DAV:   1    -0.370184850581E+03    0.94760E-02   -0.51229E+00   804   0.226E+00    0.314E-01
RMM:   2    -0.370201398273E+03   -0.16548E-01   -0.11582E-01   839   0.486E-01    0.126E+00
RMM:   3    -0.370195432894E+03    0.59654E-02   -0.89448E-03   805   0.199E-01    0.465E-01
RMM:   4    -0.370197535276E+03   -0.21024E-02   -0.20203E-03   819   0.103E-01    0.103E+00
RMM:   5    -0.370196722546E+03    0.81273E-03   -0.10354E-03   808   0.836E-02    0.856E-01
RMM:   6    -0.370194988019E+03    0.17345E-02   -0.10736E-03   805   0.885E-02    0.411E-01
RMM:   7    -0.370195941687E+03   -0.95367E-03   -0.12549E-03   808   0.912E-02    0.647E-01
RMM:   8    -0.370196028364E+03   -0.86677E-04   -0.20829E-03   810   0.114E-01    0.649E-01
RMM:   9    -0.370194655323E+03    0.13730E-02   -0.12694E-03   808   0.978E-02    0.282E-01
RMM:  10    -0.370194670751E+03   -0.15428E-04   -0.52827E-04   809   0.583E-02    0.281E-01
RMM:  11    -0.370194642991E+03    0.27760E-04   -0.34323E-04   810   0.488E-02    0.255E-01
RMM:  12    -0.370194409350E+03    0.23364E-03   -0.17267E-04   805   0.366E-02    0.807E-02
RMM:  13    -0.370194404456E+03    0.48941E-05   -0.54554E-05   803   0.187E-02    0.744E-02
RMM:  14    -0.370194387815E+03    0.16641E-04   -0.25335E-05   806   0.133E-02    0.472E-02
RMM:  15    -0.370194383851E+03    0.39636E-05   -0.12986E-05   798   0.977E-03    0.389E-02
RMM:  16    -0.370194394446E+03   -0.10595E-04   -0.13492E-05   790   0.919E-03    0.689E-02
RMM:  17    -0.370194379338E+03    0.15108E-04   -0.12551E-05   799   0.913E-03    0.220E-02
RMM:  18    -0.370194379334E+03    0.39581E-08   -0.42953E-06   604   0.550E-03
   5 F= -.38836386E+03 E0= -.38633577E+03  d E =-.405618E+01
       N       E                     dE             d eps       ncg     rms          rms(c)
DAV:   1    -0.370185514835E+03    0.88645E-02   -0.25379E+00   804   0.155E+00    0.393E-01
RMM:   2    -0.370222167025E+03   -0.36652E-01   -0.80014E-02   810   0.454E-01    0.317E+00
RMM:   3    -0.370199838968E+03    0.22328E-01   -0.11923E-02   807   0.277E-01    0.185E+00
RMM:   4    -0.370191919731E+03    0.79192E-02   -0.47116E-03   808   0.170E-01    0.837E-01
RMM:   5    -0.370193478782E+03   -0.15591E-02   -0.40828E-03   807   0.163E-01    0.105E+00
RMM:   6    -0.370190185370E+03    0.32934E-02   -0.24814E-03   808   0.139E-01    0.457E-01
RMM:   7    -0.370189920181E+03    0.26519E-03   -0.92289E-04   807   0.781E-02    0.362E-01
RMM:   8    -0.370191195717E+03   -0.12755E-02   -0.15429E-03   810   0.979E-02    0.666E-01
RMM:   9    -0.370190056775E+03    0.11389E-02   -0.13659E-03   809   0.983E-02    0.418E-01
RMM:  10    -0.370189963104E+03    0.93672E-04   -0.77670E-04   807   0.726E-02    0.375E-01
RMM:  11    -0.370189922415E+03    0.40689E-04   -0.63630E-04   811   0.656E-02    0.333E-01
RMM:  12    -0.370189525264E+03    0.39715E-03   -0.34766E-04   806   0.512E-02    0.123E-01
RMM:  13    -0.370189496576E+03    0.28688E-04   -0.76363E-05   803   0.223E-02    0.914E-02
RMM:  14    -0.370189493052E+03    0.35237E-05   -0.36765E-05   805   0.161E-02    0.887E-02
RMM:  15    -0.370189469365E+03    0.23687E-04   -0.15506E-05   795   0.110E-02    0.268E-02
RMM:  16    -0.370189475105E+03   -0.57399E-05   -0.10823E-05   783   0.822E-03    0.373E-02
RMM:  17    -0.370189476124E+03   -0.10195E-05   -0.74931E-06   725   0.715E-03    0.233E-02
RMM:  18    -0.370189475728E+03    0.39658E-06   -0.27459E-06   491   0.464E-03
   6 F= -.38835862E+03 E0= -.38632982E+03  d E =-.405759E+01
       N       E                     dE             d eps       ncg     rms          rms(c)
DAV:   1    -0.370185145322E+03    0.43308E-02   -0.50376E+00   804   0.206E+00    0.745E-01
RMM:   2    -0.370304573384E+03   -0.11943E+00   -0.18571E-01   809   0.752E-01    0.554E+00
RMM:   3    -0.370237270093E+03    0.67303E-01   -0.41690E-02   809   0.532E-01    0.407E+00
RMM:   4    -0.370196156583E+03    0.41114E-01   -0.19138E-02   810   0.350E-01    0.146E+00
RMM:   5    -0.370203499571E+03   -0.73430E-02   -0.15662E-02   808   0.315E-01    0.208E+00
RMM:   6    -0.370190940926E+03    0.12559E-01   -0.88702E-03   807   0.262E-01    0.880E-01
RMM:   7    -0.370189811857E+03    0.11291E-02   -0.32320E-03   808   0.144E-01    0.689E-01
RMM:   8    -0.370192916964E+03   -0.31051E-02   -0.46556E-03   811   0.171E-01    0.109E+00
RMM:   9    -0.370189420630E+03    0.34963E-02   -0.39710E-03   813   0.168E-01    0.595E-01
RMM:  10    -0.370189263024E+03    0.15761E-03   -0.19143E-03   811   0.114E-01    0.553E-01
RMM:  11    -0.370189232649E+03    0.30375E-04   -0.15282E-03   811   0.101E-01    0.504E-01
RMM:  12    -0.370188375276E+03    0.85737E-03   -0.96469E-04   809   0.847E-02    0.215E-01
RMM:  13    -0.370188394557E+03   -0.19281E-04   -0.33894E-04   807   0.470E-02    0.233E-01
RMM:  14    -0.370188295563E+03    0.98993E-04   -0.16607E-04   808   0.356E-02    0.179E-01
RMM:  15    -0.370188196483E+03    0.99081E-04   -0.59969E-05   804   0.213E-02    0.556E-02
RMM:  16    -0.370188209608E+03   -0.13126E-04   -0.31318E-05   802   0.139E-02    0.713E-02
RMM:  17    -0.370188209219E+03    0.38958E-06   -0.24199E-05   799   0.127E-02    0.538E-02
RMM:  18    -0.370188200619E+03    0.85996E-05   -0.10079E-05   760   0.861E-03    0.191E-02
RMM:  19    -0.370188204823E+03   -0.42041E-05   -0.37703E-06   561   0.504E-03    0.333E-02
RMM:  20    -0.370188205540E+03   -0.71705E-06   -0.26126E-06   478   0.483E-03
   7 F= -.38835802E+03 E0= -.38633068E+03  d E =-.405470E+01
       N       E                     dE             d eps       ncg     rms          rms(c)
DAV:   1    -0.370193555305E+03   -0.53505E-02   -0.13117E+00   804   0.103E+00    0.366E-01
RMM:   2    -0.370225521454E+03   -0.31966E-01   -0.45606E-02   812   0.363E-01    0.310E+00
RMM:   3    -0.370204376700E+03    0.21145E-01   -0.10063E-02   807   0.262E-01    0.179E+00
RMM:   4    -0.370196727503E+03    0.76492E-02   -0.42668E-03   810   0.164E-01    0.754E-01
RMM:   5    -0.370198498273E+03   -0.17708E-02   -0.38141E-03   808   0.156E-01    0.102E+00
RMM:   6    -0.370195375074E+03    0.31232E-02   -0.22158E-03   808   0.131E-01    0.419E-01
RMM:   7    -0.370195095671E+03    0.27940E-03   -0.76297E-04   808   0.707E-02    0.315E-01
RMM:   8    -0.370196070123E+03   -0.97445E-03   -0.11467E-03   810   0.849E-02    0.572E-01
RMM:   9    -0.370195246819E+03    0.82330E-03   -0.10008E-03   808   0.844E-02    0.366E-01
RMM:  10    -0.370195161611E+03    0.85208E-04   -0.53935E-04   807   0.606E-02    0.321E-01
RMM:  11    -0.370195163050E+03   -0.14396E-05   -0.47265E-04   811   0.562E-02    0.297E-01
RMM:  12    -0.370194854447E+03    0.30860E-03   -0.27383E-04   806   0.452E-02    0.113E-01
RMM:  13    -0.370194830633E+03    0.23814E-04   -0.64519E-05   801   0.203E-02    0.815E-02
RMM:  14    -0.370194829380E+03    0.12534E-05   -0.29640E-05   805   0.145E-02    0.808E-02
RMM:  15    -0.370194809089E+03    0.20291E-04   -0.12103E-05   789   0.965E-03    0.196E-02
RMM:  16    -0.370194812085E+03   -0.29955E-05   -0.55748E-06   664   0.596E-03    0.248E-02
RMM:  17    -0.370194815028E+03   -0.29433E-05   -0.39794E-06   537   0.535E-03    0.193E-02
RMM:  18    -0.370194815036E+03   -0.78726E-08   -0.17823E-06   431   0.394E-03
   8 F= -.38836428E+03 E0= -.38633616E+03  d E =-.405622E+01
       N       E                     dE             d eps       ncg     rms          rms(c)
DAV:   1    -0.370194642534E+03    0.17249E-03   -0.26641E-01   849   0.319E-01    0.164E-01
RMM:   2    -0.370196429472E+03   -0.17869E-02   -0.46053E-03   806   0.113E-01    0.591E-01
RMM:   3    -0.370195512317E+03    0.91716E-03   -0.11563E-03   810   0.879E-02    0.367E-01
RMM:   4    -0.370196066659E+03   -0.55434E-03   -0.63850E-04   808   0.641E-02    0.561E-01
RMM:   5    -0.370197148319E+03   -0.10817E-02   -0.62300E-04   806   0.631E-02    0.801E-01
RMM:   6    -0.370195542055E+03    0.16063E-02   -0.76199E-04   805   0.754E-02    0.280E-01
RMM:   7    -0.370195255623E+03    0.28643E-03   -0.27020E-04   805   0.442E-02    0.813E-02
RMM:   8    -0.370195375652E+03   -0.12003E-03   -0.15669E-04   807   0.315E-02    0.190E-01
RMM:   9    -0.370195267655E+03    0.10800E-03   -0.86796E-05   802   0.261E-02    0.926E-02
RMM:  10    -0.370195240396E+03    0.27259E-04   -0.23031E-05   796   0.128E-02    0.288E-02
RMM:  11    -0.370195244267E+03   -0.38710E-05   -0.85036E-06   772   0.738E-03    0.341E-02
RMM:  12    -0.370195244943E+03   -0.67599E-06   -0.45936E-06   638   0.584E-03
   9 F= -.38836473E+03 E0= -.38633661E+03  d E =-.405625E+01
       N       E                     dE             d eps       ncg     rms          rms(c)
DAV:   1    -0.370194831978E+03    0.41229E-03   -0.13322E-01   867   0.227E-01    0.116E-01
RMM:   2    -0.370195607095E+03   -0.77512E-03   -0.23527E-03   806   0.765E-02    0.355E-01
RMM:   3    -0.370195221904E+03    0.38519E-03   -0.64192E-04   809   0.623E-02    0.204E-01
RMM:   4    -0.370195792040E+03   -0.57014E-03   -0.42129E-04   807   0.519E-02    0.466E-01
RMM:   5    -0.370196472720E+03   -0.68068E-03   -0.35281E-04   805   0.485E-02    0.673E-01
RMM:   6    -0.370195292527E+03    0.11802E-02   -0.37074E-04   804   0.524E-02    0.208E-01
RMM:   7    -0.370195162449E+03    0.13008E-03   -0.12040E-04   803   0.286E-02    0.711E-02
RMM:   8    -0.370195219186E+03   -0.56737E-04   -0.82747E-05   803   0.227E-02    0.134E-01
RMM:   9    -0.370195164044E+03    0.55142E-04   -0.43755E-05   805   0.186E-02    0.643E-02
RMM:  10    -0.370195151234E+03    0.12810E-04   -0.11925E-05   783   0.926E-03    0.242E-02
RMM:  11    -0.370195152677E+03   -0.14424E-05   -0.48649E-06   648   0.571E-03    0.264E-02
RMM:  12    -0.370195152630E+03    0.46930E-07   -0.26022E-06   464   0.467E-03
  10 F= -.38836463E+03 E0= -.38633650E+03  d E =-.405626E+01
       N       E                     dE             d eps       ncg     rms          rms(c)
DAV:   1    -0.370194304796E+03    0.84788E-03   -0.26611E-01   840   0.319E-01    0.163E-01
RMM:   2    -0.370195727770E+03   -0.14230E-02   -0.46664E-03   806   0.106E-01    0.470E-01
RMM:   3    -0.370195102651E+03    0.62512E-03   -0.12418E-03   810   0.852E-02    0.302E-01
RMM:   4    -0.370196536090E+03   -0.14334E-02   -0.65437E-04   807   0.645E-02    0.765E-01
RMM:   5    -0.370196951460E+03   -0.41537E-03   -0.78040E-04   805   0.712E-02    0.803E-01
RMM:   6    -0.370195159604E+03    0.17919E-02   -0.83464E-04   805   0.788E-02    0.264E-01
RMM:   7    -0.370194946897E+03    0.21271E-03   -0.22222E-04   804   0.387E-02    0.996E-02
RMM:   8    -0.370195061960E+03   -0.11506E-03   -0.16361E-04   804   0.319E-02    0.191E-01
RMM:   9    -0.370194936115E+03    0.12585E-03   -0.91076E-05   807   0.266E-02    0.722E-02
RMM:  10    -0.370194920848E+03    0.15267E-04   -0.19835E-05   795   0.117E-02    0.322E-02
RMM:  11    -0.370194926455E+03   -0.56064E-05   -0.10011E-05   780   0.809E-03    0.457E-02
RMM:  12    -0.370194924242E+03    0.22124E-05   -0.57893E-06   730   0.660E-03    0.286E-02
RMM:  13    -0.370194922215E+03    0.20276E-05   -0.24986E-06   469   0.453E-03    0.828E-03
RMM:  14    -0.370194925920E+03   -0.37048E-05   -0.15275E-06   425   0.330E-03    0.202E-02
RMM:  15    -0.370194927156E+03   -0.12359E-05   -0.11600E-06   423   0.332E-03    0.117E-02
RMM:  16    -0.370194927852E+03   -0.69602E-06   -0.52256E-07   415   0.209E-03
  11 F= -.38836439E+03 E0= -.38633632E+03  d E =-.405615E+01
       N       E                     dE             d eps       ncg     rms          rms(c)
DAV:   1    -0.370191446514E+03    0.34806E-02   -0.14618E-01   843   0.237E-01    0.218E-01
RMM:   2    -0.370196254681E+03   -0.48082E-02   -0.69247E-03   806   0.135E-01    0.119E+00
RMM:   3    -0.370193916865E+03    0.23378E-02   -0.21712E-03   805   0.121E-01    0.988E-01
RMM:   4    -0.370192380869E+03    0.15360E-02   -0.14327E-03   809   0.954E-02    0.604E-01
RMM:   5    -0.370192603639E+03   -0.22277E-03   -0.14597E-03   808   0.979E-02    0.625E-01
RMM:   6    -0.370191348261E+03    0.12554E-02   -0.83867E-04   807   0.808E-02    0.214E-01
RMM:   7    -0.370191386801E+03   -0.38540E-04   -0.38115E-04   808   0.500E-02    0.227E-01
RMM:   8    -0.370191681188E+03   -0.29439E-03   -0.46708E-04   810   0.554E-02    0.347E-01
RMM:   9    -0.370191270432E+03    0.41076E-03   -0.29904E-04   807   0.479E-02    0.139E-01
RMM:  10    -0.370191228611E+03    0.41821E-04   -0.75892E-05   803   0.225E-02    0.802E-02
RMM:  11    -0.370191232521E+03   -0.39103E-05   -0.45287E-05   805   0.172E-02    0.810E-02
RMM:  12    -0.370191211036E+03    0.21485E-04   -0.25753E-05   803   0.140E-02    0.354E-02
RMM:  13    -0.370191212213E+03   -0.11770E-05   -0.99713E-06   765   0.822E-03    0.375E-02
RMM:  14    -0.370191211180E+03    0.10330E-05   -0.53068E-06   678   0.640E-03    0.336E-02
RMM:  15    -0.370191207874E+03    0.33058E-05   -0.20831E-06   450   0.429E-03    0.846E-03
RMM:  16    -0.370191208850E+03   -0.97627E-06   -0.12494E-06   410   0.295E-03
  12 F= -.38836030E+03 E0= -.38633239E+03  d E =-.405580E+01
       N       E                     dE             d eps       ncg     rms          rms(c)
DAV:   1    -0.370190104054E+03    0.11038E-02   -0.32879E-01   870   0.363E-01    0.401E-01
RMM:   2    -0.370208917016E+03   -0.18813E-01   -0.21745E-02   820   0.250E-01    0.249E+00
RMM:   3    -0.370197395135E+03    0.11522E-01   -0.79361E-03   807   0.230E-01    0.176E+00
RMM:   4    -0.370192439788E+03    0.49553E-02   -0.48846E-03   807   0.174E-01    0.109E+00
RMM:   5    -0.370193397403E+03   -0.95761E-03   -0.48685E-03   808   0.179E-01    0.115E+00
RMM:   6    -0.370189053212E+03    0.43442E-02   -0.29038E-03   806   0.151E-01    0.393E-01
RMM:   7    -0.370189067376E+03   -0.14164E-04   -0.12297E-03   808   0.890E-02    0.396E-01
RMM:   8    -0.370189993929E+03   -0.92655E-03   -0.14915E-03   810   0.987E-02    0.610E-01
RMM:   9    -0.370188711542E+03    0.12824E-02   -0.96846E-04   807   0.857E-02    0.255E-01
RMM:  10    -0.370188577138E+03    0.13440E-03   -0.23842E-04   807   0.400E-02    0.161E-01
RMM:  11    -0.370188598300E+03   -0.21162E-04   -0.15490E-04   810   0.318E-02    0.166E-01
RMM:  12    -0.370188511514E+03    0.86786E-04   -0.86951E-05   806   0.257E-02    0.725E-02
RMM:  13    -0.370188507834E+03    0.36797E-05   -0.31117E-05   799   0.144E-02    0.626E-02
RMM:  14    -0.370188510108E+03   -0.22735E-05   -0.17164E-05   803   0.111E-02    0.641E-02
RMM:  15    -0.370188498161E+03    0.11946E-04   -0.78809E-06   733   0.778E-03    0.153E-02
RMM:  16    -0.370188501058E+03   -0.28966E-05   -0.38064E-06   565   0.500E-03    0.207E-02
RMM:  17    -0.370188504981E+03   -0.39233E-05   -0.26770E-06   478   0.460E-03    0.156E-02
RMM:  18    -0.370188505066E+03   -0.85041E-07   -0.96721E-07   412   0.296E-03
  13 F= -.38835834E+03 E0= -.38633009E+03  d E =-.405649E+01
