 vasp.5.4.4.18Apr17-6-g9f103f2a35 (build Dec 15 2018 21:27:54) gamma-only       
  
 executed on             LinuxIFC date 2022.03.01  04:00:22
 running on   72 total cores
 distrk:  each k-point on   72 cores,    1 groups
 distr:  one band on NCORES_PER_BAND=  24 cores,    3 groups


--------------------------------------------------------------------------------------------------------


 INCAR:
 POTCAR:    PAW_PBE Ni 02Aug2007                  
 POTCAR:    PAW_PBE O 08Apr2002                   
 POTCAR:    PAW_PBE H 15Jun2001                   

 ----------------------------------------------------------------------------- 
|                                                                             |
|           W    W    AA    RRRRR   N    N  II  N    N   GGGG   !!!           |
|           W    W   A  A   R    R  NN   N  II  NN   N  G    G  !!!           |
|           W    W  A    A  R    R  N N  N  II  N N  N  G       !!!           |
|           W WW W  AAAAAA  RRRRR   N  N N  II  N  N N  G  GGG   !            |
|           WW  WW  A    A  R   R   N   NN  II  N   NN  G    G                |
|           W    W  A    A  R    R  N    N  II  N    N   GGGG   !!!           |
|                                                                             |
|      For optimal performance we recommend to set                            |
|        NCORE= 4 - approx SQRT( number of cores)                             |
|      NCORE specifies how many cores store one orbital (NPAR=cpu/NCORE).     |
|      This setting can  greatly improve the performance of VASP for DFT.     |
|      The default,   NCORE=1            might be grossly inefficient         |
|      on modern multi-core architectures or massively parallel machines.     |
|      Do your own testing !!!!                                               |
|      Unfortunately you need to use the default for GW and RPA calculations. |
|      (for HF NCORE is supported but not extensively tested yet)             |
|                                                                             |
 ----------------------------------------------------------------------------- 

 POTCAR:    PAW_PBE Ni 02Aug2007                  
   VRHFIN =Ni:                                                                  
   LEXCH  = PE                                                                  
   EATOM  =  1077.6739 eV,   79.2068 Ry                                         
                                                                                
   TITEL  = PAW_PBE Ni 02Aug2007                                                
   LULTRA =        F    use ultrasoft PP ?                                      
   IUNSCR =        1    unscreen: 0-lin 1-nonlin 2-no                           
   RPACOR =    2.000    partial core radius                                     
   POMASS =   58.690; ZVAL   =   10.000    mass and valenz                      
   RCORE  =    2.300    outmost cutoff radius                                   
   RWIGS  =    2.430; RWIGS  =    1.286    wigner-seitz radius (au A)           
   ENMAX  =  269.532; ENMIN  =  202.149 eV                                      
   RCLOC  =    1.201    cutoff for local pot                                    
   LCOR   =        T    correct aug charges                                     
   LPAW   =        T    paw PP                                                  
   EAUG   =  544.565                                                            
   DEXC   =    0.000                                                            
   RMAX   =    2.357    core radius for proj-oper                               
   RAUG   =    1.300    factor for augmentation sphere                          
   RDEP   =    2.390    radius for radial grids                                 
   RDEPT  =    1.838    core radius for aug-charge                              
                                                                                
   Atomic configuration                                                         
    9 entries                                                                   
     n  l   j            E        occ.                                          
     1  0  0.50     -8206.4253   2.0000                                         
     2  0  0.50      -976.1748   2.0000                                         
     2  1  1.50      -839.0571   6.0000                                         
     3  0  0.50      -105.9991   2.0000                                         
     3  1  1.50       -66.4603   6.0000                                         
     3  2  2.50        -4.6458   9.0000                                         
     4  0  0.50        -4.4926   1.0000                                         
     4  1  1.50        -4.0817   0.0000                                         
     4  3  2.50        -1.3606   0.0000                                         
   Description                                                                  
     l       E           TYP  RCUT    TYP  RCUT                                 
     2     -4.6457903     23  2.300                                             
     2     -6.0063729     23  2.300                                             
     0     -4.4925590     23  2.300                                             
     0      5.0102601     23  2.300                                             
     1     -2.7211652     23  2.300                                             
     1     16.5183231     23  2.300                                             
  local pseudopotential read in
  partial core-charges read in
  partial kinetic energy density read in
  atomic valenz-charges read in
  non local Contribution for L=           2  read in
    real space projection operators read in
  non local Contribution for L=           2  read in
    real space projection operators read in
  non local Contribution for L=           0  read in
    real space projection operators read in
  non local Contribution for L=           0  read in
    real space projection operators read in
  non local Contribution for L=           1  read in
    real space projection operators read in
  non local Contribution for L=           1  read in
    real space projection operators read in
    PAW grid and wavefunctions read in
 
   number of l-projection  operators is LMAX  =           6
   number of lm-projection operators is LMMAX =          18
 
 POTCAR:    PAW_PBE O 08Apr2002                   
   VRHFIN =O: s2p4                                                              
   LEXCH  = PE                                                                  
   EATOM  =   432.3788 eV,   31.7789 Ry                                         
                                                                                
   TITEL  = PAW_PBE O 08Apr2002                                                 
   LULTRA =        F    use ultrasoft PP ?                                      
   IUNSCR =        1    unscreen: 0-lin 1-nonlin 2-no                           
   RPACOR =    1.200    partial core radius                                     
   POMASS =   16.000; ZVAL   =    6.000    mass and valenz                      
   RCORE  =    1.520    outmost cutoff radius                                   
   RWIGS  =    1.550; RWIGS  =    0.820    wigner-seitz radius (au A)           
   ENMAX  =  400.000; ENMIN  =  300.000 eV                                      
   ICORE  =        2    local potential                                         
   LCOR   =        T    correct aug charges                                     
   LPAW   =        T    paw PP                                                  
   EAUG   =  605.392                                                            
   DEXC   =    0.000                                                            
   RMAX   =    1.553    core radius for proj-oper                               
   RAUG   =    1.300    factor for augmentation sphere                          
   RDEP   =    1.550    radius for radial grids                                 
   RDEPT  =    1.329    core radius for aug-charge                              
                                                                                
   Atomic configuration                                                         
    4 entries                                                                   
     n  l   j            E        occ.                                          
     1  0  0.50      -514.6923   2.0000                                         
     2  0  0.50       -23.9615   2.0000                                         
     2  1  0.50        -9.0305   4.0000                                         
     3  2  1.50        -9.5241   0.0000                                         
   Description                                                                  
     l       E           TYP  RCUT    TYP  RCUT                                 
     0    -23.9615318     23  1.200                                             
     0     -9.5240782     23  1.200                                             
     1     -9.0304911     23  1.520                                             
     1      8.1634956     23  1.520                                             
     2     -9.5240782      7  1.500                                             
  local pseudopotential read in
  partial core-charges read in
  partial kinetic energy density read in
  kinetic energy density of atom read in
  atomic valenz-charges read in
  non local Contribution for L=           0  read in
    real space projection operators read in
  non local Contribution for L=           0  read in
    real space projection operators read in
  non local Contribution for L=           1  read in
    real space projection operators read in
  non local Contribution for L=           1  read in
    real space projection operators read in
    PAW grid and wavefunctions read in
 
   number of l-projection  operators is LMAX  =           4
   number of lm-projection operators is LMMAX =           8
 
 POTCAR:    PAW_PBE H 15Jun2001                   
   VRHFIN =H: ultrasoft test                                                    
   LEXCH  = PE                                                                  
   EATOM  =    12.4884 eV,    0.9179 Ry                                         
                                                                                
   TITEL  = PAW_PBE H 15Jun2001                                                 
   LULTRA =        F    use ultrasoft PP ?                                      
   IUNSCR =        0    unscreen: 0-lin 1-nonlin 2-no                           
   RPACOR =    0.000    partial core radius                                     
   POMASS =    1.000; ZVAL   =    1.000    mass and valenz                      
   RCORE  =    1.100    outmost cutoff radius                                   
   RWIGS  =    0.700; RWIGS  =    0.370    wigner-seitz radius (au A)           
   ENMAX  =  250.000; ENMIN  =  200.000 eV                                      
   RCLOC  =    0.701    cutoff for local pot                                    
   LCOR   =        T    correct aug charges                                     
   LPAW   =        T    paw PP                                                  
   EAUG   =  400.000                                                            
   RMAX   =    1.123    core radius for proj-oper                               
   RAUG   =    1.200    factor for augmentation sphere                          
   RDEP   =    1.112    radius for radial grids                                 
   RDEPT  =    0.926    core radius for aug-charge                              
                                                                                
   Atomic configuration                                                         
    2 entries                                                                   
     n  l   j            E        occ.                                          
     1  0  0.50        -6.4927   1.0000                                         
     2  1  0.50        -3.4015   0.0000                                         
   Description                                                                  
     l       E           TYP  RCUT    TYP  RCUT                                 
     0     -6.4927494     23  1.100                                             
     0      6.8029130     23  1.100                                             
     1     -4.0817478     23  1.100                                             
  local pseudopotential read in
  atomic valenz-charges read in
  non local Contribution for L=           0  read in
    real space projection operators read in
  non local Contribution for L=           0  read in
    real space projection operators read in
  non local Contribution for L=           1  read in
    real space projection operators read in
    PAW grid and wavefunctions read in
 
   number of l-projection  operators is LMAX  =           3
   number of lm-projection operators is LMMAX =           5
 
 Optimization of the real space projectors (new method)

 maximal supplied QI-value         = 16.25
 optimisation between [QCUT,QGAM] = [ 11.54, 23.24] = [ 37.28,151.24] Ry 
 Optimized for a Real-space Cutoff    1.45 Angstroem

   l    n(q)    QCUT    max X(q) W(low)/X(q) W(high)/X(q)  e(spline) 
   2      9    11.539    60.317    0.19E-03    0.47E-04    0.16E-06
   2      9    11.539    55.921    0.19E-03    0.48E-04    0.16E-06
   0     10    11.539    51.690    0.80E-04    0.50E-04    0.24E-06
   0     10    11.539    30.015    0.73E-04    0.45E-04    0.22E-06
   1     10    11.539    18.849    0.87E-04    0.16E-03    0.71E-07
   1     10    11.539    14.624    0.73E-04    0.13E-03    0.64E-07
 Optimization of the real space projectors (new method)

 maximal supplied QI-value         = 24.76
 optimisation between [QCUT,QGAM] = [ 11.64, 23.27] = [ 37.91,151.63] Ry 
 Optimized for a Real-space Cutoff    1.14 Angstroem

   l    n(q)    QCUT    max X(q) W(low)/X(q) W(high)/X(q)  e(spline) 
   0      8    11.635    20.381    0.10E-03    0.33E-03    0.24E-06
   0      8    11.635    15.268    0.11E-03    0.35E-03    0.26E-06
   1      7    11.635     5.964    0.24E-03    0.31E-03    0.30E-06
   1      7    11.635     5.382    0.22E-03    0.25E-03    0.26E-06
 Optimization of the real space projectors (new method)

 maximal supplied QI-value         = 34.20
 optimisation between [QCUT,QGAM] = [ 11.63, 23.26] = [ 37.87,151.49] Ry 
 Optimized for a Real-space Cutoff    1.21 Angstroem

   l    n(q)    QCUT    max X(q) W(low)/X(q) W(high)/X(q)  e(spline) 
   0      8    11.629    19.460    0.17E-03    0.34E-03    0.21E-06
   0      8    11.629    12.209    0.16E-03    0.33E-03    0.21E-06
   1      8    11.629     4.655    0.18E-03    0.16E-03    0.26E-06
  PAW_PBE Ni 02Aug2007                  :
 energy of atom  1       EATOM=-1077.6739
 kinetic energy error for atom=    0.0030 (will be added to EATOM!!)
  PAW_PBE O 08Apr2002                   :
 energy of atom  2       EATOM= -432.3788
 kinetic energy error for atom=    0.0208 (will be added to EATOM!!)
  PAW_PBE H 15Jun2001                   :
 energy of atom  3       EATOM=  -12.4884
 kinetic energy error for atom=    0.0014 (will be added to EATOM!!)
 
 
 POSCAR: POSCAR                                  
  positions in direct lattice
  velocities in cartesian coordinates
 exchange correlation table for  LEXCH =        8
   RHO(1)=    0.500       N(1)  =     2000
   RHO(2)=  100.500       N(2)  =     4000

 VTST: version 3.2, (02/03/18)

 CHAIN: initializing optimizer
 
 OPT: Using VASP Dynamics algorithm
 CHAIN: Read ICHAIN            0
 
 POSCAR: POSCAR                                  
  positions in direct lattice
  velocities in cartesian coordinates
 


--------------------------------------------------------------------------------------------------------


 ion  position               nearest neighbor table
   1  0.113  0.226  0.095-  15 2.49  19 2.49   3 2.49   5 2.49  13 2.49  17 2.49  21 2.49  49 2.49
                            61 2.49
   2  0.110  0.227  0.382-  65 1.83  14 2.40  18 2.43  20 2.46  62 2.49  22 2.50  24 2.51   6 2.51
                             4 2.52  50 2.57
   3  0.196  0.142  0.191-   4 2.44  24 2.45   8 2.45   5 2.49  49 2.49   1 2.49   7 2.49  15 2.49
                            19 2.49  23 2.49  51 2.49  63 2.49
   4  0.030  0.059  0.285-  62 2.43   3 2.44  63 2.44  15 2.44  24 2.49   8 2.49  16 2.49  64 2.49
                            20 2.49  52 2.50   2 2.52  50 2.53
   5  0.363  0.226  0.095-   3 2.49  23 2.49   7 2.49   9 2.49   1 2.49  21 2.49  25 2.49  49 2.49
                            53 2.49
   6  0.360  0.223  0.386-  65 1.88  69 1.98   2 2.51  50 2.51  54 2.52  22 2.52  26 2.54  28 2.54
                            10 2.54   8 2.55  24 2.55
   7  0.446  0.142  0.191-   8 2.45  12 2.46  28 2.49   9 2.49  53 2.49   5 2.49  11 2.49   3 2.49
                            23 2.49  51 2.49  27 2.49  55 2.49
   8  0.280  0.060  0.286-  54 2.41   3 2.45   7 2.45  51 2.46  24 2.47  28 2.48   4 2.49  52 2.50
                            12 2.50  56 2.51  50 2.51   6 2.55
   9  0.613  0.226  0.095-   7 2.49  27 2.49  11 2.49  13 2.49   5 2.49  25 2.49  29 2.49  53 2.49
                            57 2.49
  10  0.615  0.223  0.386-  68 1.89  69 1.97  14 2.51  58 2.51  54 2.52  30 2.52  32 2.54  28 2.54
                            12 2.54  26 2.54   6 2.54
  11  0.696  0.142  0.191-  16 2.44  12 2.45  32 2.45  13 2.49  57 2.49   9 2.49  15 2.49   7 2.49
                            27 2.49  55 2.49  31 2.49  59 2.49
  12  0.531  0.060  0.286-  54 2.41  11 2.45   7 2.46  55 2.46  32 2.47  28 2.49  16 2.49  60 2.50
                             8 2.50  56 2.51  58 2.52  10 2.54
  13  0.863  0.226  0.095-  11 2.49  31 2.49  15 2.49   9 2.49   1 2.49  29 2.49  17 2.49  57 2.49
                            61 2.49
  14  0.869  0.227  0.382-  68 1.83   2 2.40  18 2.43  20 2.45  62 2.49  30 2.50  10 2.51  32 2.52
                            16 2.52  58 2.57
  15  0.946  0.142  0.191-  16 2.44   4 2.44  20 2.47   1 2.49  61 2.49  13 2.49   3 2.49  11 2.49
                            31 2.49  59 2.49  19 2.49  63 2.49
  16  0.780  0.059  0.285-  62 2.43  15 2.44  59 2.44  11 2.44  32 2.49  12 2.49   4 2.49  64 2.49
                            60 2.50  20 2.50  58 2.52  14 2.52
  17  0.113  0.476  0.095-  31 2.49  35 2.49  19 2.49  21 2.49  29 2.49  13 2.49  33 2.49   1 2.49
                            37 2.49
  18  0.112  0.472  0.382-  67 1.84  14 2.43   2 2.43  20 2.47  30 2.47  22 2.47  40 2.52  36 2.53
                            34 2.54  38 2.54
  19  0.196  0.392  0.191-  40 2.44  20 2.47  24 2.47  21 2.49   1 2.49  17 2.49  31 2.49  23 2.49
                            15 2.49  35 2.49  39 2.49   3 2.49
  20  0.030  0.309  0.286-  14 2.45   2 2.46  19 2.47  15 2.47  18 2.47  31 2.47  40 2.49  36 2.49
                             4 2.49  16 2.50  24 2.50  32 2.50
  21  0.363  0.476  0.095-  19 2.49  39 2.49  23 2.49  25 2.49  17 2.49   5 2.49  37 2.49   1 2.49
                            41 2.49
  22  0.362  0.476  0.377-  40 2.41  44 2.41  24 2.41  18 2.47  38 2.47   2 2.50  42 2.50   6 2.52
                            26 2.52
  23  0.446  0.392  0.191-  24 2.45  44 2.46  25 2.49   5 2.49  21 2.49  27 2.49  19 2.49   3 2.49
                            39 2.49  43 2.49   7 2.49  28 2.50
  24  0.280  0.307  0.286-  22 2.41   3 2.45  23 2.45   8 2.47  19 2.47  28 2.48   4 2.49  20 2.50
                            44 2.50  40 2.51   2 2.51   6 2.55
  25  0.613  0.476  0.095-  23 2.49  43 2.49  27 2.49  29 2.49  21 2.49   9 2.49  41 2.49   5 2.49
                            45 2.49
  26  0.615  0.478  0.386-  66 1.88  69 1.98  42 2.51  46 2.52  30 2.52  22 2.52   6 2.54  28 2.54
                            10 2.54  48 2.55  44 2.55
  27  0.696  0.392  0.191-  48 2.46  32 2.46  28 2.49  29 2.49   9 2.49  25 2.49  23 2.49  31 2.49
                            11 2.49  43 2.49  47 2.49   7 2.49
  28  0.530  0.309  0.288-  44 2.48  24 2.48   8 2.48  48 2.48  12 2.49  32 2.49  27 2.49   7 2.49
                            23 2.50  10 2.54  26 2.54   6 2.54
  29  0.863  0.476  0.095-  27 2.49  47 2.49  31 2.49  25 2.49  17 2.49  13 2.49  33 2.49  45 2.49
                             9 2.49
  30  0.866  0.477  0.376-  36 2.40  32 2.41  48 2.41  18 2.47  34 2.47  46 2.50  14 2.50  10 2.52
                            26 2.52
  31  0.946  0.392  0.191-  36 2.44  32 2.46  20 2.47  17 2.49  13 2.49  29 2.49  27 2.49  19 2.49
                            15 2.49  35 2.49  11 2.49  47 2.49
  32  0.779  0.307  0.286-  30 2.41  11 2.45  27 2.46  31 2.46  12 2.47  28 2.49  16 2.49  20 2.50
                            48 2.50  36 2.51  14 2.52  10 2.54
  33  0.113  0.726  0.095-  47 2.49  51 2.49  35 2.49  37 2.49  45 2.49  29 2.49  49 2.49  17 2.49
                            53 2.49
  34  0.112  0.727  0.382-  67 1.84  46 2.43  50 2.43  52 2.47  54 2.47  30 2.47  56 2.52  36 2.52
                            18 2.54  38 2.54
  35  0.196  0.642  0.191-  36 2.43  56 2.43  40 2.44  37 2.49  17 2.49  33 2.49  47 2.49  39 2.49
                            31 2.49  51 2.49  55 2.49  19 2.49
  36  0.030  0.559  0.284-  30 2.40  35 2.43  31 2.44  47 2.44  52 2.49  20 2.49  56 2.49  40 2.49
                            48 2.51  32 2.51  34 2.52  18 2.53
  37  0.363  0.726  0.095-  35 2.49  55 2.49  39 2.49  41 2.49  33 2.49  21 2.49  53 2.49  17 2.49
                            57 2.49
  38  0.366  0.727  0.382-  67 1.84  58 2.43  42 2.43  60 2.47  54 2.47  22 2.47  40 2.52  56 2.53
                            18 2.54  34 2.54
  39  0.446  0.642  0.191-  40 2.44  60 2.47  44 2.47  41 2.49  21 2.49  37 2.49  35 2.49  43 2.49
                            23 2.49  55 2.49  59 2.49  19 2.49
  40  0.280  0.559  0.284-  22 2.41  39 2.44  19 2.44  35 2.44  20 2.49  60 2.49  56 2.49  36 2.49
                            44 2.51  24 2.51  18 2.52  38 2.52
  41  0.613  0.726  0.095-  39 2.49  59 2.49  43 2.49  45 2.49  37 2.49  25 2.49  57 2.49  21 2.49
                            61 2.49
  42  0.612  0.729  0.382-  66 1.83  58 2.40  38 2.43  60 2.46  62 2.49  22 2.50  44 2.51  26 2.51
                            64 2.52  46 2.57
  43  0.696  0.642  0.191-  64 2.44  44 2.45  48 2.45  45 2.49  25 2.49  41 2.49  39 2.49  47 2.49
                            27 2.49  59 2.49  63 2.49  23 2.49
  44  0.531  0.559  0.286-  22 2.41  43 2.45  23 2.46  48 2.47  39 2.47  28 2.48  64 2.49  60 2.50
                            24 2.50  40 2.51  42 2.51  26 2.55
  45  0.863  0.726  0.095-  43 2.49  63 2.49  47 2.49  41 2.49  33 2.49  29 2.49  49 2.49  61 2.49
                            25 2.49
  46  0.869  0.729  0.382-  66 1.83  50 2.40  34 2.43  52 2.46  62 2.49  30 2.50  48 2.51  26 2.52
                            64 2.53  42 2.57
  47  0.946  0.642  0.191-  36 2.44  48 2.46  52 2.47  33 2.49  29 2.49  45 2.49  43 2.49  35 2.49
                            31 2.49  51 2.49  27 2.49  63 2.49
  48  0.779  0.559  0.286-  30 2.41  43 2.45  27 2.46  47 2.46  44 2.47  28 2.48  64 2.49  52 2.50
                            32 2.50  36 2.51  46 2.51  26 2.55
  49  0.113  0.976  0.095-  63 2.49   3 2.49  51 2.49  61 2.49  53 2.49   1 2.49   5 2.49  33 2.49
                            45 2.49
  50  0.110  0.970  0.382-  65 1.83  46 2.40  34 2.43  52 2.46  62 2.49  54 2.50   8 2.51   6 2.51
                             4 2.53   2 2.57
  51  0.196  0.892  0.191-  56 2.44   8 2.46  52 2.47  53 2.49  33 2.49  49 2.49  55 2.49  63 2.49
                            35 2.49  47 2.49   3 2.49   7 2.49
  52  0.030  0.809  0.286-  46 2.46  50 2.46  51 2.47  47 2.47  34 2.47  63 2.47  56 2.49  36 2.49
                             4 2.50  64 2.50   8 2.50  48 2.50
  53  0.363  0.976  0.095-  51 2.49   7 2.49  55 2.49  49 2.49  57 2.49   5 2.49   9 2.49  33 2.49
                            37 2.49
  54  0.362  0.972  0.376-  56 2.40  12 2.41   8 2.41  38 2.47  34 2.47  50 2.50  58 2.50  10 2.52
                             6 2.52
  55  0.446  0.892  0.191-  56 2.44  12 2.46  60 2.47  57 2.49  37 2.49  53 2.49  59 2.49  51 2.49
                            11 2.49  39 2.49   7 2.49  35 2.49
  56  0.280  0.809  0.284-  54 2.40  35 2.43  55 2.44  51 2.44  52 2.49  60 2.49  36 2.49  40 2.49
                            12 2.51   8 2.51  34 2.52  38 2.53
  57  0.613  0.976  0.095-  55 2.49  11 2.49  59 2.49  53 2.49  61 2.49   9 2.49  13 2.49  37 2.49
                            41 2.49
  58  0.612  0.969  0.382-  68 1.83  42 2.40  38 2.43  60 2.45  62 2.49  54 2.50  10 2.51  12 2.52
                            16 2.52  14 2.57
  59  0.696  0.892  0.191-  16 2.44  64 2.44  60 2.47  61 2.49  41 2.49  57 2.49  63 2.49  55 2.49
                            15 2.49  43 2.49  11 2.49  39 2.49
  60  0.529  0.808  0.286-  58 2.45  42 2.46  39 2.47  59 2.47  38 2.47  55 2.47  40 2.49  56 2.49
                            64 2.49  16 2.50  44 2.50  12 2.50
  61  0.863  0.976  0.095-  59 2.49  15 2.49  63 2.49  49 2.49  57 2.49  13 2.49   1 2.49  41 2.49
                            45 2.49
  62  0.864  0.975  0.377-   4 2.43  64 2.43  16 2.43  58 2.49  14 2.49  50 2.49  46 2.49  42 2.49
                             2 2.49
  63  0.946  0.892  0.191-  64 2.44   4 2.44  52 2.47  49 2.49  45 2.49  61 2.49  51 2.49  59 2.49
                             3 2.49  47 2.49  15 2.49  43 2.49
  64  0.780  0.809  0.285-  62 2.43  43 2.44  63 2.44  59 2.44  44 2.49  48 2.49  16 2.49   4 2.49
                            60 2.49  52 2.50  42 2.52  46 2.53
  65  0.180  0.133  0.437-   2 1.83  50 1.83   6 1.88
  66  0.705  0.658  0.437-  46 1.83  42 1.83  26 1.88
  67  0.197  0.642  0.435-  38 1.84  18 1.84  34 1.84
  68  0.705  0.133  0.436-  14 1.83  58 1.83  10 1.89
  69  0.531  0.308  0.449-  70 0.97  10 1.97  26 1.98   6 1.98
  70  0.533  0.306  0.495-  69 0.97
 

IMPORTANT INFORMATION: All symmetrisations will be switched off!
NOSYMM: (Re-)initialisation of all symmetry stuff for point group C_1.

 
 

Automatic generation of k-mesh.
 generate k-points for:    1    1    1
Space group operators:
 irot       det(A)        alpha          n_x          n_y          n_z        tau_x        tau_y        tau_z
    1     1.000000     0.000000     1.000000     0.000000     0.000000     0.000000     0.000000     0.000000
 
 Subroutine IBZKPT returns following result:
 ===========================================
 
 Found      1 irreducible k-points:
 
 Following reciprocal coordinates:
            Coordinates               Weight
  0.000000  0.000000  0.000000      1.000000
 
 Following cartesian coordinates:
            Coordinates               Weight
  0.000000  0.000000  0.000000      1.000000
 
 
 Subroutine IBZKPT_HF returns following result:
 ==============================================
 
 Found      1 k-points in 1st BZ
 the following      1 k-points will be used (e.g. in the exchange kernel)
 Following reciprocal coordinates:   # in IRBZ
  0.000000  0.000000  0.000000    1.00000000   1 t-inv F


--------------------------------------------------------------------------------------------------------




 Dimension of arrays:
   k-points           NKPTS =      1   k-points in BZ     NKDIM =      1   number of bands    NBANDS=    402
   number of dos      NEDOS =    301   number of ions     NIONS =     70
   non local maximal  LDIM  =      6   non local SUM 2l+1 LMDIM =     18
   total plane-waves  NPLWV = ******
   max r-space proj   IRMAX =   7188   max aug-charges    IRDMAX=  18478
   dimension x,y,z NGX =    80 NGY =   80 NGZ =  160
   dimension x,y,z NGXF=   160 NGYF=  160 NGZF=  320
   support grid    NGXF=   160 NGYF=  160 NGZF=  320
   ions per type =              64   5   1
   NGX,Y,Z   is equivalent  to a cutoff of  13.34, 13.34, 12.60 a.u.
   NGXF,Y,Z  is equivalent  to a cutoff of  26.69, 26.69, 25.21 a.u.

 SYSTEM =  SQS-NiFe                                
 POSCAR =  POSCAR                                  

 Startparameter for this run:
   NWRITE =      2    write-flag & timer
   PREC   = accura    normal or accurate (medium, high low for compatibility)
   ISTART =      0    job   : 0-new  1-cont  2-samecut
   ICHARG =      1    charge: 1-file 2-atom 10-const
   ISPIN  =      1    spin polarized calculation?
   LNONCOLLINEAR =      F non collinear calculations
   LSORBIT =      F    spin-orbit coupling
   INIWAV =      1    electr: 0-lowe 1-rand  2-diag
   LASPH  =      F    aspherical Exc in radial PAW
   METAGGA=      F    non-selfconsistent MetaGGA calc.

 Electronic Relaxation 1
   ENCUT  =  520.0 eV  38.22 Ry    6.18 a.u.  18.53 18.53 39.24*2*pi/ulx,y,z
   ENINI  =  520.0     initial cutoff
   ENAUG  =  605.4 eV  augmentation charge cutoff
   NELM   =    200;   NELMIN=  2; NELMDL= -5     # of ELM steps 
   EDIFF  = 0.1E-05   stopping-criterion for ELM
   LREAL  =      T    real-space projection
   NLSPLINE    = F    spline interpolate recip. space projectors
   LCOMPAT=      F    compatible to vasp.4.4
   GGA_COMPAT  = T    GGA compatible to vasp.4.4-vasp.4.6
   LMAXPAW     = -100 max onsite density
   LMAXMIX     =    2 max onsite mixed and CHGCAR
   VOSKOWN=      0    Vosko Wilk Nusair interpolation
   ROPT   =   -0.00025  -0.00025  -0.00025
 Ionic relaxation
   EDIFFG = -.2E-01   stopping-criterion for IOM
   NSW    =    877    number of steps for IOM
   NBLOCK =      1;   KBLOCK =    877    inner block; outer block 
   IBRION =      5    ionic relax: 0-MD 1-quasi-New 2-CG
   NFREE  =      2    steps in history (QN), initial steepest desc. (CG)
   ISIF   =      2    stress and relaxation
   IWAVPR =     11    prediction:  0-non 1-charg 2-wave 3-comb
   ISYM   =      0    0-nonsym 1-usesym 2-fastsym
   LCORR  =      T    Harris-Foulkes like correction to forces

   POTIM  = 0.0150    time-step for ionic-motion
   TEIN   =    0.0    initial temperature
   TEBEG  =    0.0;   TEEND  =   0.0 temperature during run
   SMASS  =  -3.00    Nose mass-parameter (am)
   estimated Nose-frequenzy (Omega)   =  0.10E-29 period in steps =****** mass=  -0.227E-26a.u.
   SCALEE = 1.0000    scale energy and forces
   NPACO  =    256;   APACO  = 16.0  distance and # of slots for P.C.
   PSTRESS=    0.0 pullay stress

  Mass of Ions in am
   POMASS =  58.69 16.00  1.00
  Ionic Valenz
   ZVAL   =  10.00  6.00  1.00
  Atomic Wigner-Seitz radii
   RWIGS  =  -1.00 -1.00 -1.00
  virtual crystal weights 
   VCA    =   1.00  1.00  1.00
   NELECT =     671.0000    total number of electrons
   NUPDOWN=      -1.0000    fix difference up-down

 DOS related values:
   EMIN   =  10.00;   EMAX   =-10.00  energy-range for DOS
   EFERMI =   0.00
   ISMEAR =     0;   SIGMA  =   0.20  broadening in eV -4-tet -1-fermi 0-gaus

 Electronic relaxation 2 (details)
   IALGO  =     68    algorithm
   LDIAG  =      T    sub-space diagonalisation (order eigenvalues)
   LSUBROT=      F    optimize rotation matrix (better conditioning)
   TURBO    =      0    0=normal 1=particle mesh
   IRESTART =      0    0=no restart 2=restart with 2 vectors
   NREBOOT  =      0    no. of reboots
   NMIN     =      0    reboot dimension
   EREF     =   0.00    reference energy to select bands
   IMIX   =      4    mixing-type and parameters
     AMIX     =   0.40;   BMIX     =  1.00
     AMIX_MAG =   1.60;   BMIX_MAG =  1.00
     AMIN     =   0.10
     WC   =   100.;   INIMIX=   1;  MIXPRE=   1;  MAXMIX= -45

 Intra band minimization:
   WEIMIN = 0.0010     energy-eigenvalue tresh-hold
   EBREAK =  0.62E-09  absolut break condition
   DEPER  =   0.30     relativ break condition  

   TIME   =   0.40     timestep for ELM

  volume/ion in A,a.u.               =      25.94       175.05
  Fermi-wavevector in a.u.,A,eV,Ry     =   1.174803  2.220055 18.778233  1.380161
  Thomas-Fermi vector in A             =   2.311194
 
 Write flags
   LWAVE        =      F    write WAVECAR
   LDOWNSAMPLE  =      F    k-point downsampling of WAVECAR
   LCHARG       =      F    write CHGCAR
   LVTOT        =      F    write LOCPOT, total local potential
   LVHAR        =      F    write LOCPOT, Hartree potential only
   LELF         =      F    write electronic localiz. function (ELF)
   LORBIT       =     10    0 simple, 1 ext, 2 COOP (PROOUT), +10 PAW based schemes


 Dipole corrections
   LMONO  =      F    monopole corrections only (constant potential shift)
   LDIPOL =      F    correct potential (dipole corrections)
   IDIPOL =      0    1-x, 2-y, 3-z, 4-all directions 
   EPSILON=  1.0000000 bulk dielectric constant

 Exchange correlation treatment:
   GGA     =    --    GGA type
   LEXCH   =     8    internal setting for exchange type
   VOSKOWN=      0    Vosko Wilk Nusair interpolation
   LHFCALC =     F    Hartree Fock is set to
   LHFONE  =     F    Hartree Fock one center treatment
   AEXX    =    0.0000 exact exchange contribution

 Linear response parameters
   LEPSILON=     F    determine dielectric tensor
   LRPA    =     F    only Hartree local field effects (RPA)
   LNABLA  =     F    use nabla operator in PAW spheres
   LVEL    =     F    velocity operator in full k-point grid
   LINTERFAST=   F  fast interpolation
   KINTER  =     0    interpolate to denser k-point grid
   CSHIFT  =0.1000    complex shift for real part using Kramers Kronig
   OMEGAMAX=  -1.0    maximum frequency
   DEG_THRESHOLD= 0.2000000E-02 threshold for treating states as degnerate
   RTIME   =   -0.100 relaxation time in fs
  (WPLASMAI=    0.000 imaginary part of plasma frequency in eV, 0.658/RTIME)
   DFIELD  = 0.0000000 0.0000000 0.0000000 field for delta impulse in time
 
 Orbital magnetization related:
   ORBITALMAG=     F  switch on orbital magnetization
   LCHIMAG   =     F  perturbation theory with respect to B field
   DQ        =  0.001000  dq finite difference perturbation B field
   LLRAUG    =     F  two centre corrections for induced B field



--------------------------------------------------------------------------------------------------------


 finite differences
   using selective dynamics as specified on POSCAR
 charge density and potential will be updated during run
 non-spin polarized calculation
 RMM-DIIS sequential band-by-band and
  variant of blocked Davidson during initial phase
 perform sub-space diagonalisation
    before iterative eigenvector-optimisation
 modified Broyden-mixing scheme, WC =      100.0
 initial mixing is a Kerker type mixing with AMIX =  0.4000 and BMIX =      1.0000
 Hartree-type preconditioning will be used
 using additional bands           66
 real space projection scheme for non local part
 use partial core corrections
 calculate Harris-corrections to forces 
   (improved forces if not selfconsistent)
 use gradient corrections 
 use of overlap-Matrix (Vanderbilt PP)
 Gauss-broadening in eV      SIGMA  =   0.20


--------------------------------------------------------------------------------------------------------


  energy-cutoff  :      520.00
  volume of cell :     1815.73
      direct lattice vectors                 reciprocal lattice vectors
     9.967380000  0.000000000  0.000000000     0.100327268  0.057923975  0.000000000
    -4.983690000  8.632004290  0.000000000     0.000000000  0.115847950  0.000000000
     0.000000000  0.000000000 21.103750000     0.000000000  0.000000000  0.047384943

  length of vectors
     9.967380000  9.967380001 21.103750000     0.115847950  0.115847950  0.047384943


 
 k-points in units of 2pi/SCALE and weight: read from INCAR                         
   0.00000000  0.00000000  0.00000000       1.000
 
 k-points in reciprocal lattice and weights: read from INCAR                         
   0.00000000  0.00000000  0.00000000       1.000
 
 position of ions in fractional coordinates (direct lattice) 
   0.11283300  0.22566700  0.09477000
   0.11009316  0.22714561  0.38214975
   0.19616700  0.14233300  0.19117800
   0.02989793  0.05875870  0.28460199
   0.36283300  0.22566700  0.09477000
   0.36035549  0.22346557  0.38606345
   0.44616700  0.14233300  0.19117800
   0.27997646  0.06007819  0.28557232
   0.61283300  0.22566700  0.09477000
   0.61530184  0.22333937  0.38565353
   0.69616700  0.14233300  0.19117800
   0.53110148  0.06003075  0.28550629
   0.86283300  0.22566700  0.09477000
   0.86921584  0.22715517  0.38212556
   0.94616700  0.14233300  0.19117800
   0.77983113  0.05874895  0.28460633
   0.11283300  0.47566700  0.09477000
   0.11208098  0.47220616  0.38236600
   0.19616700  0.39233300  0.19117800
   0.03011124  0.30913361  0.28621738
   0.36283300  0.47566700  0.09477000
   0.36215410  0.47648836  0.37651238
   0.44616700  0.39233300  0.19117800
   0.28000301  0.30745961  0.28557511
   0.61283300  0.47566700  0.09477000
   0.61517376  0.47827263  0.38604411
   0.69616700  0.39233300  0.19117800
   0.52984948  0.30872368  0.28762925
   0.86283300  0.47566700  0.09477000
   0.86633686  0.47650422  0.37645752
   0.94616700  0.39233300  0.19117800
   0.77855209  0.30747660  0.28550780
   0.11283300  0.72566700  0.09477000
   0.11207548  0.72658247  0.38234532
   0.19616700  0.64233300  0.19117800
   0.02992341  0.55877337  0.28436491
   0.36283300  0.72566700  0.09477000
   0.36649891  0.72659989  0.38235556
   0.44616700  0.64233300  0.19117800
   0.27982676  0.55875105  0.28439245
   0.61283300  0.72566700  0.09477000
   0.61151024  0.72856170  0.38214039
   0.69616700  0.64233300  0.19117800
   0.53111082  0.55856832  0.28557327
   0.86283300  0.72566700  0.09477000
   0.86914601  0.72867142  0.38215135
   0.94616700  0.64233300  0.19117800
   0.77850751  0.55860190  0.28557256
   0.11283300  0.97566700  0.09477000
   0.10997706  0.96950969  0.38215343
   0.19616700  0.89233300  0.19117800
   0.03005621  0.80852874  0.28622146
   0.36283300  0.97566700  0.09477000
   0.36214402  0.97231801  0.37645590
   0.44616700  0.89233300  0.19117800
   0.27980405  0.80865248  0.28436388
   0.61283300  0.97566700  0.09477000
   0.61150099  0.96942079  0.38211845
   0.69616700  0.89233300  0.19117800
   0.52945862  0.80847558  0.28621569
   0.86283300  0.97566700  0.09477000
   0.86352418  0.97511802  0.37747844
   0.94616700  0.89233300  0.19117800
   0.77982000  0.80867685  0.28460191
   0.18029820  0.13345359  0.43653520
   0.70519724  0.65831624  0.43653629
   0.19695046  0.64179678  0.43539207
   0.70527090  0.13341652  0.43646511
   0.53108504  0.30767926  0.44860065
   0.53349925  0.30574264  0.49474615
 
 position of ions in cartesian coordinates  (Angst):
  -0.00000498  1.94795851  2.00000239
  -0.03468294  1.96072184  8.06479281
   1.24592748  1.22861907  4.03457272
   0.00516889  0.50720534  6.00616934
   2.49184002  1.94795851  2.00000239
   2.47811692  1.92895578  8.14738655
   3.73777248  1.22861907  4.03457272
   2.49122071  0.51859519  6.02664677
   4.98368502  1.94795851  2.00000239
   5.01989304  1.92786639  8.13873560
   6.22961748  1.22861907  4.03457272
   4.99451559  0.51818569  6.02525344
   7.47553002  1.94795851  2.00000239
   7.53173368  1.96080436  8.06428226
   8.72146248  1.22861907  4.03457272
   7.48008668  0.50712118  6.00626086
  -1.24592748  4.10595958  2.00000239
  -1.23617540  4.07608561  8.06935650
   0.00000498  3.38662014  4.03457272
  -1.24049595  2.66844268  6.04025997
   1.24591752  4.10595958  2.00000239
   1.23505730  4.11304954  7.94582317
   2.49184998  3.38662014  4.03457272
   1.25861301  2.65399268  6.02670581
   3.73776252  4.10595958  2.00000239
   3.74810815  4.12845136  8.14697846
   4.98369498  3.38662014  4.03457272
   3.74262800  2.66490410  6.07005587
   6.22960752  4.10595958  2.00000239
   6.26035936  4.11318645  7.94466547
   7.47553998  3.38662014  4.03457272
   6.22775651  2.65413930  6.02528527
  -2.49184998  6.26396066  2.00000239
  -2.50396284  6.27186298  8.06891997
  -1.24591752  5.54462121  4.03457272
  -2.48649525  4.82333415  6.00116597
  -0.00000498  6.26396066  2.00000239
   0.03188530  6.27201339  8.06913610
   1.24592748  5.54462121  4.03457272
   0.00449759  4.82314147  6.00174711
   2.49184002  6.26396066  2.00000239
   2.46422932  6.28894770  8.06459520
   3.73777248  5.54462121  4.03457272
   2.51005208  4.82156410  6.02666689
   4.98368502  6.26396066  2.00000239
   5.03163606  6.28989481  8.06482664
   6.22961748  5.54462121  4.03457272
   4.97578145  4.82185403  6.02665194
  -3.73777248  8.42196173  2.00000239
  -3.73555265  8.36881182  8.06487038
  -2.49184002  7.70262228  4.03457272
  -3.72987493  6.97922356  6.04034604
  -1.24592748  8.42196173  2.00000239
  -1.23610449  8.39305327  7.94463128
   0.00000498  7.70262228  4.03457272
  -1.24115997  6.98029170  6.00114433
   1.24591752  8.42196173  2.00000239
   1.26377007  8.36804440  8.06413231
   2.49184998  7.70262228  4.03457272
   1.24812358  6.97876469  6.04022436
   3.73776252  8.42196173  2.00000239
   3.74738770  8.41722291  7.96621061
   4.98369498  7.70262228  4.03457272
   3.74256753  6.98050205  6.00616753
   1.13200931  1.15197195  9.21252982
   3.74812481  5.68258864  9.21255276
  -1.23543608  5.53999255  9.18840537
   6.36479651  1.15165194  9.21105054
   3.76014834  2.65588865  9.46715605
   3.79386321  2.63917175 10.44099900
 


--------------------------------------------------------------------------------------------------------


 use parallel FFT for orbitals z direction half grid
 k-point  1 :   0.0000 0.0000 0.0000  plane waves:   24475

 maximum and minimum number of plane-waves per node :      1022     1017

 maximum number of plane-waves:     24475
 maximum index in each direction: 
   IXMAX=   18   IYMAX=   18   IZMAX=   39
   IXMIN=  -18   IYMIN=  -18   IZMIN=    0


 real space projection operators:
  total allocation   :      63455.93 KBytes
  max/ min on nodes  :       3214.06       2337.58


 parallel 3D FFT for wavefunctions:
    minimum data exchange during FFTs selected (reduces bandwidth)
 parallel 3D FFT for charge:
    minimum data exchange during FFTs selected (reduces bandwidth)


 total amount of memory used by VASP MPI-rank0    54101. kBytes
=======================================================================

   base      :      30000. kBytes
   nonlr-proj:       3941. kBytes
   fftplans  :       5964. kBytes
   grid      :      11929. kBytes
   one-center:         23. kBytes
   wavefun   :       2244. kBytes
 
     INWAV:  cpu time    0.0000: real time    0.0002
 Broyden mixing: mesh for mixing (old mesh)
   NGX = 37   NGY = 37   NGZ = 79
  (NGX  =160   NGY  =160   NGZ  =320)
  gives a total of 108151 points

 initial charge density was supplied:
 number of electron     671.0000064 magnetization 
 keeping initial charge density in first step


--------------------------------------------------------------------------------------------------------


 Maximum index for non-local projection operator          709
 Maximum index for augmentation-charges         1178 (set IRDMAX)


--------------------------------------------------------------------------------------------------------


 First call to EWALD:  gamma=   0.145
 Maximum number of real-space cells 4x 4x 2
 Maximum number of reciprocal cells 2x 2x 4

    FEWALD:  cpu time    0.0034: real time    0.0034


--------------------------------------- Iteration      1(   1)  ---------------------------------------


    POTLOK:  cpu time    0.1844: real time    0.1922
    SETDIJ:  cpu time    0.0099: real time    0.0100
     EDDAV:  cpu time    2.3802: real time    2.4479
       DOS:  cpu time    0.0013: real time    0.0013
    --------------------------------------------
      LOOP:  cpu time    2.5758: real time    2.6514

 eigenvalue-minimisations  :   804
 total energy-change (2. order) : 0.6119685E+04  (-0.3486900E+05)
 number of electron     671.0000064 magnetization 
 augmentation part      671.0000064 magnetization 

 Free energy of the ion-electron system (eV)
  ---------------------------------------------------
  alpha Z        PSCENC =      1249.88091572
  Ewald energy   TEWEN  =    248445.36182444
  -Hartree energ DENC   =   -317638.02716124
  -exchange      EXHF   =         0.00000000
  -V(xc)+E(xc)   XCENC  =      2095.59976431
  PAW double counting   =     74903.64186545   -79302.24385739
  entropy T*S    EENTRO =        -0.33209483
  eigenvalues    EBANDS =      5220.58847604
  atomic energy  EATOM  =     71145.21574525
  Solvation  Ediel_sol  =         0.00000000
  ---------------------------------------------------
  free energy    TOTEN  =      6119.68547775 eV

  energy without entropy =     6120.01757259  energy(sigma->0) =     6119.85152517


--------------------------------------------------------------------------------------------------------




--------------------------------------- Iteration      1(   2)  ---------------------------------------


     EDDAV:  cpu time    2.2821: real time    2.2939
       DOS:  cpu time    0.0013: real time    0.0012
    --------------------------------------------
      LOOP:  cpu time    2.2834: real time    2.2951

 eigenvalue-minimisations  :   804
 total energy-change (2. order) :-0.5721460E+04  (-0.5527541E+04)
 number of electron     671.0000064 magnetization 
 augmentation part      671.0000064 magnetization 

 Free energy of the ion-electron system (eV)
  ---------------------------------------------------
  alpha Z        PSCENC =      1249.88091572
  Ewald energy   TEWEN  =    248445.36182444
  -Hartree energ DENC   =   -317638.02716124
  -exchange      EXHF   =         0.00000000
  -V(xc)+E(xc)   XCENC  =      2095.59976431
  PAW double counting   =     74903.64186545   -79302.24385739
  entropy T*S    EENTRO =        -0.46179170
  eigenvalues    EBANDS =      -500.74134763
  atomic energy  EATOM  =     71145.21574525
  Solvation  Ediel_sol  =         0.00000000
  ---------------------------------------------------
  free energy    TOTEN  =       398.22595721 eV

  energy without entropy =      398.68774891  energy(sigma->0) =      398.45685306


--------------------------------------------------------------------------------------------------------




--------------------------------------- Iteration      1(   3)  ---------------------------------------


     EDDAV:  cpu time    2.2706: real time    2.2827
       DOS:  cpu time    0.0029: real time    0.0028
    --------------------------------------------
      LOOP:  cpu time    2.2734: real time    2.2855

 eigenvalue-minimisations  :   804
 total energy-change (2. order) :-0.6745853E+03  (-0.6133337E+03)
 number of electron     671.0000064 magnetization 
 augmentation part      671.0000064 magnetization 

 Free energy of the ion-electron system (eV)
  ---------------------------------------------------
  alpha Z        PSCENC =      1249.88091572
  Ewald energy   TEWEN  =    248445.36182444
  -Hartree energ DENC   =   -317638.02716124
  -exchange      EXHF   =         0.00000000
  -V(xc)+E(xc)   XCENC  =      2095.59976431
  PAW double counting   =     74903.64186545   -79302.24385739
  entropy T*S    EENTRO =        -2.53411111
  eigenvalues    EBANDS =     -1173.25430662
  atomic energy  EATOM  =     71145.21574525
  Solvation  Ediel_sol  =         0.00000000
  ---------------------------------------------------
  free energy    TOTEN  =      -276.35932119 eV

  energy without entropy =     -273.82521008  energy(sigma->0) =     -275.09226563


--------------------------------------------------------------------------------------------------------




--------------------------------------- Iteration      1(   4)  ---------------------------------------


     EDDAV:  cpu time    2.9308: real time    2.9449
       DOS:  cpu time    0.0013: real time    0.0013
    --------------------------------------------
      LOOP:  cpu time    2.9322: real time    2.9462

 eigenvalue-minimisations  :  1095
 total energy-change (2. order) :-0.8864821E+02  (-0.7832507E+02)
 number of electron     671.0000064 magnetization 
 augmentation part      671.0000064 magnetization 

 Free energy of the ion-electron system (eV)
  ---------------------------------------------------
  alpha Z        PSCENC =      1249.88091572
  Ewald energy   TEWEN  =    248445.36182444
  -Hartree energ DENC   =   -317638.02716124
  -exchange      EXHF   =         0.00000000
  -V(xc)+E(xc)   XCENC  =      2095.59976431
  PAW double counting   =     74903.64186545   -79302.24385739
  entropy T*S    EENTRO =        -3.27358912
  eigenvalues    EBANDS =     -1261.16303868
  atomic energy  EATOM  =     71145.21574525
  Solvation  Ediel_sol  =         0.00000000
  ---------------------------------------------------
  free energy    TOTEN  =      -365.00753125 eV

  energy without entropy =     -361.73394213  energy(sigma->0) =     -363.37073669


--------------------------------------------------------------------------------------------------------




--------------------------------------- Iteration      1(   5)  ---------------------------------------


     EDDAV:  cpu time    2.3538: real time    2.3670
       DOS:  cpu time    0.0015: real time    0.0015
    CHARGE:  cpu time    0.1117: real time    0.1117
    MIXING:  cpu time    0.0040: real time    0.0040
    --------------------------------------------
      LOOP:  cpu time    2.4719: real time    2.4844

 eigenvalue-minimisations  :   843
 total energy-change (2. order) :-0.6126700E+01  (-0.5921880E+01)
 number of electron     671.0000060 magnetization 
 augmentation part      400.5881274 magnetization 

 Broyden mixing:
  rms(total) = 0.94843E+00    rms(broyden)= 0.94824E+00
  rms(prec ) = 0.10732E+01
  weight for this iteration     100.00

 Free energy of the ion-electron system (eV)
  ---------------------------------------------------
  alpha Z        PSCENC =      1249.88091572
  Ewald energy   TEWEN  =    248445.36182444
  -Hartree energ DENC   =   -317638.02716124
  -exchange      EXHF   =         0.00000000
  -V(xc)+E(xc)   XCENC  =      2095.59976431
  PAW double counting   =     74903.64186545   -79302.24385739
  entropy T*S    EENTRO =        -3.41807977
  eigenvalues    EBANDS =     -1267.14524790
  atomic energy  EATOM  =     71145.21574525
  Solvation  Ediel_sol  =         0.00000000
  ---------------------------------------------------
  free energy    TOTEN  =      -371.13423113 eV

  energy without entropy =     -367.71615135  energy(sigma->0) =     -369.42519124


--------------------------------------------------------------------------------------------------------




--------------------------------------- Iteration      1(   6)  ---------------------------------------


    POTLOK:  cpu time    0.1783: real time    0.1890
    SETDIJ:  cpu time    0.0099: real time    0.0099
    EDDIAG:  cpu time    0.3410: real time    0.3410
  RMM-DIIS:  cpu time    1.6095: real time    1.6108
    ORTHCH:  cpu time    0.0744: real time    0.0744
       DOS:  cpu time    0.0016: real time    0.0016
    CHARGE:  cpu time    0.1094: real time    0.1094
    MIXING:  cpu time    0.0036: real time    0.0036
    --------------------------------------------
      LOOP:  cpu time    2.3269: real time    2.3399

 eigenvalue-minimisations  :   811
 total energy-change (2. order) :-0.2485581E+02  (-0.2596961E+01)
 number of electron     671.0000096 magnetization 
 augmentation part      395.0585538 magnetization 

 Broyden mixing:
  rms(total) = 0.65143E+01    rms(broyden)= 0.65140E+01
  rms(prec ) = 0.76706E+01
  weight for this iteration     100.00

 eigenvalues of (default mixing * dielectric matrix)
  average eigenvalue GAMMA=   0.1120
  0.1120

 Free energy of the ion-electron system (eV)
  ---------------------------------------------------
  alpha Z        PSCENC =      1249.88091572
  Ewald energy   TEWEN  =    248445.36182444
  -Hartree energ DENC   =   -317818.26093218
  -exchange      EXHF   =         0.00000000
  -V(xc)+E(xc)   XCENC  =      2098.54494310
  PAW double counting   =     75206.53899731   -79617.37499147
  entropy T*S    EENTRO =        -2.32350909
  eigenvalues    EBANDS =     -1103.57303438
  atomic energy  EATOM  =     71145.21574525
  Solvation  Ediel_sol  =         0.00000000
  ---------------------------------------------------
  free energy    TOTEN  =      -395.99004131 eV

  energy without entropy =     -393.66653222  energy(sigma->0) =     -394.82828677


--------------------------------------------------------------------------------------------------------




--------------------------------------- Iteration      1(   7)  ---------------------------------------


    POTLOK:  cpu time    0.1808: real time    0.1924
    SETDIJ:  cpu time    0.0099: real time    0.0099
    EDDIAG:  cpu time    0.3398: real time    0.3398
  RMM-DIIS:  cpu time    1.6089: real time    1.6095
    ORTHCH:  cpu time    0.0750: real time    0.0750
       DOS:  cpu time    0.0018: real time    0.0018
    CHARGE:  cpu time    0.1095: real time    0.1095
    MIXING:  cpu time    0.0035: real time    0.0035
    --------------------------------------------
      LOOP:  cpu time    2.3291: real time    2.3414

 eigenvalue-minimisations  :   808
 total energy-change (2. order) : 0.2221524E+02  (-0.1390317E+01)
 number of electron     671.0000055 magnetization 
 augmentation part      397.6288237 magnetization 

 Broyden mixing:
  rms(total) = 0.33541E+01    rms(broyden)= 0.33537E+01
  rms(prec ) = 0.39982E+01
  weight for this iteration     100.00

 eigenvalues of (default mixing * dielectric matrix)
  average eigenvalue GAMMA=   0.0937
  0.1230  0.0644

 Free energy of the ion-electron system (eV)
  ---------------------------------------------------
  alpha Z        PSCENC =      1249.88091572
  Ewald energy   TEWEN  =    248445.36182444
  -Hartree energ DENC   =   -317710.23075710
  -exchange      EXHF   =         0.00000000
  -V(xc)+E(xc)   XCENC  =      2098.38278192
  PAW double counting   =     75198.78433899   -79604.85417264
  entropy T*S    EENTRO =        -3.36014003
  eigenvalues    EBANDS =     -1192.95533705
  atomic energy  EATOM  =     71145.21574525
  Solvation  Ediel_sol  =         0.00000000
  ---------------------------------------------------
  free energy    TOTEN  =      -373.77480051 eV

  energy without entropy =     -370.41466047  energy(sigma->0) =     -372.09473049


--------------------------------------------------------------------------------------------------------




--------------------------------------- Iteration      1(   8)  ---------------------------------------


    POTLOK:  cpu time    0.1821: real time    0.1938
    SETDIJ:  cpu time    0.0098: real time    0.0098
    EDDIAG:  cpu time    0.3395: real time    0.3395
  RMM-DIIS:  cpu time    1.6172: real time    1.6181
    ORTHCH:  cpu time    0.0748: real time    0.0748
       DOS:  cpu time    0.0018: real time    0.0018
    CHARGE:  cpu time    0.1095: real time    0.1095
    MIXING:  cpu time    0.0038: real time    0.0038
    --------------------------------------------
      LOOP:  cpu time    2.3386: real time    2.3511

 eigenvalue-minimisations  :   813
 total energy-change (2. order) : 0.2319802E+01  (-0.2521205E+00)
 number of electron     671.0000058 magnetization 
 augmentation part      397.7944358 magnetization 

 Broyden mixing:
  rms(total) = 0.19168E+01    rms(broyden)= 0.19167E+01
  rms(prec ) = 0.26662E+01
  weight for this iteration     100.00

 eigenvalues of (default mixing * dielectric matrix)
  average eigenvalue GAMMA=   0.0992
  0.1493  0.0981  0.0501

 Free energy of the ion-electron system (eV)
  ---------------------------------------------------
  alpha Z        PSCENC =      1249.88091572
  Ewald energy   TEWEN  =    248445.36182444
  -Hartree energ DENC   =   -317711.55155201
  -exchange      EXHF   =         0.00000000
  -V(xc)+E(xc)   XCENC  =      2098.15162108
  PAW double counting   =     75194.99038006   -79599.84529850
  entropy T*S    EENTRO =        -3.92313008
  eigenvalues    EBANDS =     -1189.73550408
  atomic energy  EATOM  =     71145.21574525
  Solvation  Ediel_sol  =         0.00000000
  ---------------------------------------------------
  free energy    TOTEN  =      -371.45499812 eV

  energy without entropy =     -367.53186805  energy(sigma->0) =     -369.49343308


--------------------------------------------------------------------------------------------------------




--------------------------------------- Iteration      1(   9)  ---------------------------------------


    POTLOK:  cpu time    0.1814: real time    0.1936
    SETDIJ:  cpu time    0.0099: real time    0.0099
    EDDIAG:  cpu time    0.3474: real time    0.3475
  RMM-DIIS:  cpu time    1.6298: real time    1.6302
    ORTHCH:  cpu time    0.0747: real time    0.0747
       DOS:  cpu time    0.0017: real time    0.0017
    CHARGE:  cpu time    0.1128: real time    0.1128
    MIXING:  cpu time    0.0038: real time    0.0038
    --------------------------------------------
      LOOP:  cpu time    2.3615: real time    2.3742

 eigenvalue-minimisations  :   819
 total energy-change (2. order) : 0.5525868E+00  (-0.7387350E-01)
 number of electron     671.0000071 magnetization 
 augmentation part      398.0147764 magnetization 

 Broyden mixing:
  rms(total) = 0.14271E+01    rms(broyden)= 0.14270E+01
  rms(prec ) = 0.19513E+01
  weight for this iteration     100.00

 eigenvalues of (default mixing * dielectric matrix)
  average eigenvalue GAMMA=   0.1583
  0.4108  0.1161  0.0727  0.0337

 Free energy of the ion-electron system (eV)
  ---------------------------------------------------
  alpha Z        PSCENC =      1249.88091572
  Ewald energy   TEWEN  =    248445.36182444
  -Hartree energ DENC   =   -317719.08304496
  -exchange      EXHF   =         0.00000000
  -V(xc)+E(xc)   XCENC  =      2097.98674753
  PAW double counting   =     75188.64636323   -79591.73328493
  entropy T*S    EENTRO =        -3.80995664
  eigenvalues    EBANDS =     -1183.36772095
  atomic energy  EATOM  =     71145.21574525
  Solvation  Ediel_sol  =         0.00000000
  ---------------------------------------------------
  free energy    TOTEN  =      -370.90241131 eV

  energy without entropy =     -367.09245467  energy(sigma->0) =     -368.99743299


--------------------------------------------------------------------------------------------------------




--------------------------------------- Iteration      1(  10)  ---------------------------------------


    POTLOK:  cpu time    0.1840: real time    0.2000
    SETDIJ:  cpu time    0.0099: real time    0.0099
    EDDIAG:  cpu time    0.3483: real time    0.3485
  RMM-DIIS:  cpu time    1.6103: real time    1.6108
    ORTHCH:  cpu time    0.0747: real time    0.0747
       DOS:  cpu time    0.0018: real time    0.0018
    CHARGE:  cpu time    0.1107: real time    0.1107
    MIXING:  cpu time    0.0038: real time    0.0038
    --------------------------------------------
      LOOP:  cpu time    2.3434: real time    2.3602

 eigenvalue-minimisations  :   812
 total energy-change (2. order) : 0.2373328E+00  (-0.1041401E+00)
 number of electron     671.0000063 magnetization 
 augmentation part      398.7602771 magnetization 

 Broyden mixing:
  rms(total) = 0.10305E+01    rms(broyden)= 0.10304E+01
  rms(prec ) = 0.11425E+01
  weight for this iteration     100.00

 eigenvalues of (default mixing * dielectric matrix)
  average eigenvalue GAMMA=   0.1988
  0.6565  0.1298  0.1011  0.0729  0.0339

 Free energy of the ion-electron system (eV)
  ---------------------------------------------------
  alpha Z        PSCENC =      1249.88091572
  Ewald energy   TEWEN  =    248445.36182444
  -Hartree energ DENC   =   -317694.12898480
  -exchange      EXHF   =         0.00000000
  -V(xc)+E(xc)   XCENC  =      2097.56353115
  PAW double counting   =     75149.74728283   -79547.12244428
  entropy T*S    EENTRO =        -3.87231425
  eigenvalues    EBANDS =     -1213.31063462
  atomic energy  EATOM  =     71145.21574525
  Solvation  Ediel_sol  =         0.00000000
  ---------------------------------------------------
  free energy    TOTEN  =      -370.66507856 eV

  energy without entropy =     -366.79276431  energy(sigma->0) =     -368.72892143


--------------------------------------------------------------------------------------------------------




--------------------------------------- Iteration      1(  11)  ---------------------------------------


    POTLOK:  cpu time    0.1838: real time    0.1960
    SETDIJ:  cpu time    0.0099: real time    0.0099
    EDDIAG:  cpu time    0.3388: real time    0.3388
  RMM-DIIS:  cpu time    1.6094: real time    1.6098
    ORTHCH:  cpu time    0.0743: real time    0.0742
       DOS:  cpu time    0.0018: real time    0.0018
    CHARGE:  cpu time    0.1096: real time    0.1097
    MIXING:  cpu time    0.0039: real time    0.0039
    --------------------------------------------
      LOOP:  cpu time    2.3315: real time    2.3441

 eigenvalue-minimisations  :   811
 total energy-change (2. order) : 0.3502538E+00  (-0.4870093E-01)
 number of electron     671.0000064 magnetization 
 augmentation part      399.1058857 magnetization 

 Broyden mixing:
  rms(total) = 0.52573E+00    rms(broyden)= 0.52561E+00
  rms(prec ) = 0.59114E+00
  weight for this iteration     100.00

 eigenvalues of (default mixing * dielectric matrix)
  average eigenvalue GAMMA=   0.2256
  0.8257  0.2060  0.1269  0.0858  0.0753  0.0338

 Free energy of the ion-electron system (eV)
  ---------------------------------------------------
  alpha Z        PSCENC =      1249.88091572
  Ewald energy   TEWEN  =    248445.36182444
  -Hartree energ DENC   =   -317686.82930720
  -exchange      EXHF   =         0.00000000
  -V(xc)+E(xc)   XCENC  =      2097.35862163
  PAW double counting   =     75114.94697731   -79508.20691905
  entropy T*S    EENTRO =        -3.97488245
  eigenvalues    EBANDS =     -1224.06780042
  atomic energy  EATOM  =     71145.21574525
  Solvation  Ediel_sol  =         0.00000000
  ---------------------------------------------------
  free energy    TOTEN  =      -370.31482477 eV

  energy without entropy =     -366.33994232  energy(sigma->0) =     -368.32738354


--------------------------------------------------------------------------------------------------------




--------------------------------------- Iteration      1(  12)  ---------------------------------------


    POTLOK:  cpu time    0.1836: real time    0.1960
    SETDIJ:  cpu time    0.0098: real time    0.0098
    EDDIAG:  cpu time    0.3414: real time    0.3415
  RMM-DIIS:  cpu time    1.6092: real time    1.6097
    ORTHCH:  cpu time    0.0742: real time    0.0742
       DOS:  cpu time    0.0018: real time    0.0018
    CHARGE:  cpu time    0.1117: real time    0.1116
    MIXING:  cpu time    0.0040: real time    0.0040
    --------------------------------------------
      LOOP:  cpu time    2.3356: real time    2.3486

 eigenvalue-minimisations  :   810
 total energy-change (2. order) :-0.1130491E-01  (-0.2300589E-01)
 number of electron     671.0000064 magnetization 
 augmentation part      399.2473481 magnetization 

 Broyden mixing:
  rms(total) = 0.56309E+00    rms(broyden)= 0.56304E+00
  rms(prec ) = 0.65218E+00
  weight for this iteration     100.00

 eigenvalues of (default mixing * dielectric matrix)
  average eigenvalue GAMMA=   0.3210
  1.3983  0.4243  0.1439  0.0338  0.0962  0.0807  0.0700

 Free energy of the ion-electron system (eV)
  ---------------------------------------------------
  alpha Z        PSCENC =      1249.88091572
  Ewald energy   TEWEN  =    248445.36182444
  -Hartree energ DENC   =   -317684.92352106
  -exchange      EXHF   =         0.00000000
  -V(xc)+E(xc)   XCENC  =      2097.42550063
  PAW double counting   =     75091.00927214   -79482.83263560
  entropy T*S    EENTRO =        -3.94623671
  eigenvalues    EBANDS =     -1227.51699449
  atomic energy  EATOM  =     71145.21574525
  Solvation  Ediel_sol  =         0.00000000
  ---------------------------------------------------
  free energy    TOTEN  =      -370.32612968 eV

  energy without entropy =     -366.37989297  energy(sigma->0) =     -368.35301132


--------------------------------------------------------------------------------------------------------




--------------------------------------- Iteration      1(  13)  ---------------------------------------


    POTLOK:  cpu time    0.1839: real time    0.1957
    SETDIJ:  cpu time    0.0099: real time    0.0099
    EDDIAG:  cpu time    0.3398: real time    0.3401
  RMM-DIIS:  cpu time    1.6127: real time    1.6138
    ORTHCH:  cpu time    0.0746: real time    0.0746
       DOS:  cpu time    0.0016: real time    0.0016
    CHARGE:  cpu time    0.1102: real time    0.1102
    MIXING:  cpu time    0.0041: real time    0.0042
    --------------------------------------------
      LOOP:  cpu time    2.3368: real time    2.3501

 eigenvalue-minimisations  :   809
 total energy-change (2. order) :-0.7155584E-01  (-0.1803565E-01)
 number of electron     671.0000065 magnetization 
 augmentation part      398.9769303 magnetization 

 Broyden mixing:
  rms(total) = 0.73868E+00    rms(broyden)= 0.73864E+00
  rms(prec ) = 0.86089E+00
  weight for this iteration     100.00

 eigenvalues of (default mixing * dielectric matrix)
  average eigenvalue GAMMA=   0.3377
  1.7074  0.4776  0.1550  0.0338  0.0941  0.0941  0.0721  0.0679

 Free energy of the ion-electron system (eV)
  ---------------------------------------------------
  alpha Z        PSCENC =      1249.88091572
  Ewald energy   TEWEN  =    248445.36182444
  -Hartree energ DENC   =   -317696.47884140
  -exchange      EXHF   =         0.00000000
  -V(xc)+E(xc)   XCENC  =      2097.74853370
  PAW double counting   =     75041.14434253   -79431.58975127
  entropy T*S    EENTRO =        -3.95353940
  eigenvalues    EBANDS =     -1217.72691508
  atomic energy  EATOM  =     71145.21574525
  Solvation  Ediel_sol  =         0.00000000
  ---------------------------------------------------
  free energy    TOTEN  =      -370.39768551 eV

  energy without entropy =     -366.44414611  energy(sigma->0) =     -368.42091581


--------------------------------------------------------------------------------------------------------




--------------------------------------- Iteration      1(  14)  ---------------------------------------


    POTLOK:  cpu time    0.1837: real time    0.1966
    SETDIJ:  cpu time    0.0099: real time    0.0099
    EDDIAG:  cpu time    0.3378: real time    0.3378
  RMM-DIIS:  cpu time    1.6072: real time    1.6079
    ORTHCH:  cpu time    0.0747: real time    0.0747
       DOS:  cpu time    0.0019: real time    0.0019
    CHARGE:  cpu time    0.1100: real time    0.1100
    MIXING:  cpu time    0.0042: real time    0.0042
    --------------------------------------------
      LOOP:  cpu time    2.3294: real time    2.3430

 eigenvalue-minimisations  :   810
 total energy-change (2. order) : 0.1693376E+00  (-0.1198910E-01)
 number of electron     671.0000063 magnetization 
 augmentation part      398.7827103 magnetization 

 Broyden mixing:
  rms(total) = 0.28372E+00    rms(broyden)= 0.28365E+00
  rms(prec ) = 0.32774E+00
  weight for this iteration     100.00

 eigenvalues of (default mixing * dielectric matrix)
  average eigenvalue GAMMA=   0.3674
  1.8870  0.5803  0.3433  0.1376  0.0338  0.1019  0.0863  0.0725  0.0638

 Free energy of the ion-electron system (eV)
  ---------------------------------------------------
  alpha Z        PSCENC =      1249.88091572
  Ewald energy   TEWEN  =    248445.36182444
  -Hartree energ DENC   =   -317703.65455143
  -exchange      EXHF   =         0.00000000
  -V(xc)+E(xc)   XCENC  =      2097.91536490
  PAW double counting   =     75016.49364746   -79406.43125075
  entropy T*S    EENTRO =        -4.01849875
  eigenvalues    EBANDS =     -1210.99154479
  atomic energy  EATOM  =     71145.21574525
  Solvation  Ediel_sol  =         0.00000000
  ---------------------------------------------------
  free energy    TOTEN  =      -370.22834796 eV

  energy without entropy =     -366.20984921  energy(sigma->0) =     -368.21909858


--------------------------------------------------------------------------------------------------------




--------------------------------------- Iteration      1(  15)  ---------------------------------------


    POTLOK:  cpu time    0.1815: real time    0.1928
    SETDIJ:  cpu time    0.0099: real time    0.0099
    EDDIAG:  cpu time    0.3379: real time    0.3379
  RMM-DIIS:  cpu time    1.6098: real time    1.6105
    ORTHCH:  cpu time    0.0747: real time    0.0747
       DOS:  cpu time    0.0019: real time    0.0019
    CHARGE:  cpu time    0.1100: real time    0.1100
    MIXING:  cpu time    0.0044: real time    0.0044
    --------------------------------------------
      LOOP:  cpu time    2.3301: real time    2.3422

 eigenvalue-minimisations  :   810
 total energy-change (2. order) :-0.3968466E-01  (-0.1091472E-01)
 number of electron     671.0000063 magnetization 
 augmentation part      398.7435776 magnetization 

 Broyden mixing:
  rms(total) = 0.41855E+00    rms(broyden)= 0.41852E+00
  rms(prec ) = 0.48111E+00
  weight for this iteration     100.00

 eigenvalues of (default mixing * dielectric matrix)
  average eigenvalue GAMMA=   0.3899
  2.0013  0.8756  0.4190  0.1432  0.0338  0.1071  0.0996  0.0847  0.0719  0.0633

 Free energy of the ion-electron system (eV)
  ---------------------------------------------------
  alpha Z        PSCENC =      1249.88091572
  Ewald energy   TEWEN  =    248445.36182444
  -Hartree energ DENC   =   -317705.73376900
  -exchange      EXHF   =         0.00000000
  -V(xc)+E(xc)   XCENC  =      2098.01944633
  PAW double counting   =     74985.90478180   -79374.70188152
  entropy T*S    EENTRO =        -4.02902564
  eigenvalues    EBANDS =     -1210.18607001
  atomic energy  EATOM  =     71145.21574525
  Solvation  Ediel_sol  =         0.00000000
  ---------------------------------------------------
  free energy    TOTEN  =      -370.26803262 eV

  energy without entropy =     -366.23900699  energy(sigma->0) =     -368.25351980


--------------------------------------------------------------------------------------------------------




--------------------------------------- Iteration      1(  16)  ---------------------------------------


    POTLOK:  cpu time    0.1833: real time    0.1955
    SETDIJ:  cpu time    0.0099: real time    0.0099
    EDDIAG:  cpu time    0.3385: real time    0.3385
  RMM-DIIS:  cpu time    1.6130: real time    1.6138
    ORTHCH:  cpu time    0.0741: real time    0.0741
       DOS:  cpu time    0.0018: real time    0.0018
    CHARGE:  cpu time    0.1105: real time    0.1106
    MIXING:  cpu time    0.0047: real time    0.0047
    --------------------------------------------
      LOOP:  cpu time    2.3358: real time    2.3489

 eigenvalue-minimisations  :   809
 total energy-change (2. order) : 0.4922940E-01  (-0.6097232E-02)
 number of electron     671.0000064 magnetization 
 augmentation part      398.7546989 magnetization 

 Broyden mixing:
  rms(total) = 0.24311E+00    rms(broyden)= 0.24308E+00
  rms(prec ) = 0.28002E+00
  weight for this iteration     100.00

 eigenvalues of (default mixing * dielectric matrix)
  average eigenvalue GAMMA=   0.3833
  2.0738  0.9823  0.4232  0.1630  0.1279  0.0338  0.1077  0.0848  0.0848  0.0715
  0.0632

 Free energy of the ion-electron system (eV)
  ---------------------------------------------------
  alpha Z        PSCENC =      1249.88091572
  Ewald energy   TEWEN  =    248445.36182444
  -Hartree energ DENC   =   -317707.42807472
  -exchange      EXHF   =         0.00000000
  -V(xc)+E(xc)   XCENC  =      2098.07772013
  PAW double counting   =     74955.78640404   -79343.33458777
  entropy T*S    EENTRO =        -4.06117892
  eigenvalues    EBANDS =     -1209.71757139
  atomic energy  EATOM  =     71145.21574525
  Solvation  Ediel_sol  =         0.00000000
  ---------------------------------------------------
  free energy    TOTEN  =      -370.21880322 eV

  energy without entropy =     -366.15762430  energy(sigma->0) =     -368.18821376


--------------------------------------------------------------------------------------------------------




--------------------------------------- Iteration      1(  17)  ---------------------------------------


    POTLOK:  cpu time    0.1820: real time    0.1934
    SETDIJ:  cpu time    0.0098: real time    0.0098
    EDDIAG:  cpu time    0.3398: real time    0.3398
  RMM-DIIS:  cpu time    1.6044: real time    1.6051
    ORTHCH:  cpu time    0.0751: real time    0.0751
       DOS:  cpu time    0.0017: real time    0.0017
    CHARGE:  cpu time    0.1102: real time    0.1102
    MIXING:  cpu time    0.0049: real time    0.0049
    --------------------------------------------
      LOOP:  cpu time    2.3278: real time    2.3399

 eigenvalue-minimisations  :   809
 total energy-change (2. order) : 0.1549687E-01  (-0.2501743E-02)
 number of electron     671.0000064 magnetization 
 augmentation part      398.7370500 magnetization 

 Broyden mixing:
  rms(total) = 0.14748E+00    rms(broyden)= 0.14746E+00
  rms(prec ) = 0.17097E+00
  weight for this iteration     100.00

 eigenvalues of (default mixing * dielectric matrix)
  average eigenvalue GAMMA=   0.4011
  2.2196  1.1320  0.4251  0.3546  0.1390  0.0338  0.1181  0.0965  0.0867  0.0630
  0.0719  0.0726

 Free energy of the ion-electron system (eV)
  ---------------------------------------------------
  alpha Z        PSCENC =      1249.88091572
  Ewald energy   TEWEN  =    248445.36182444
  -Hartree energ DENC   =   -317708.01038853
  -exchange      EXHF   =         0.00000000
  -V(xc)+E(xc)   XCENC  =      2098.09475796
  PAW double counting   =     74943.82942857   -79330.95707723
  entropy T*S    EENTRO =        -4.07030278
  eigenvalues    EBANDS =     -1209.54820975
  atomic energy  EATOM  =     71145.21574525
  Solvation  Ediel_sol  =         0.00000000
  ---------------------------------------------------
  free energy    TOTEN  =      -370.20330635 eV

  energy without entropy =     -366.13300357  energy(sigma->0) =     -368.16815496


--------------------------------------------------------------------------------------------------------




--------------------------------------- Iteration      1(  18)  ---------------------------------------


    POTLOK:  cpu time    0.1816: real time    0.1930
    SETDIJ:  cpu time    0.0101: real time    0.0101
    EDDIAG:  cpu time    0.3446: real time    0.3446
  RMM-DIIS:  cpu time    1.6096: real time    1.6102
    ORTHCH:  cpu time    0.0739: real time    0.0739
       DOS:  cpu time    0.0019: real time    0.0019
    CHARGE:  cpu time    0.1108: real time    0.1109
    MIXING:  cpu time    0.0052: real time    0.0052
    --------------------------------------------
      LOOP:  cpu time    2.3377: real time    2.3498

 eigenvalue-minimisations  :   808
 total energy-change (2. order) :-0.5580820E-02  (-0.1281651E-02)
 number of electron     671.0000064 magnetization 
 augmentation part      398.7542471 magnetization 

 Broyden mixing:
  rms(total) = 0.19785E+00    rms(broyden)= 0.19784E+00
  rms(prec ) = 0.23031E+00
  weight for this iteration     100.00

 eigenvalues of (default mixing * dielectric matrix)
  average eigenvalue GAMMA=   0.4148
  2.4193  1.2856  0.4966  0.4244  0.1413  0.1238  0.0338  0.0986  0.0884  0.0824
  0.0718  0.0649  0.0621

 Free energy of the ion-electron system (eV)
  ---------------------------------------------------
  alpha Z        PSCENC =      1249.88091572
  Ewald energy   TEWEN  =    248445.36182444
  -Hartree energ DENC   =   -317708.18479348
  -exchange      EXHF   =         0.00000000
  -V(xc)+E(xc)   XCENC  =      2098.10252971
  PAW double counting   =     74926.31692096   -79312.81151962
  entropy T*S    EENTRO =        -4.06397152
  eigenvalues    EBANDS =     -1210.02653863
  atomic energy  EATOM  =     71145.21574525
  Solvation  Ediel_sol  =         0.00000000
  ---------------------------------------------------
  free energy    TOTEN  =      -370.20888717 eV

  energy without entropy =     -366.14491565  energy(sigma->0) =     -368.17690141


--------------------------------------------------------------------------------------------------------




--------------------------------------- Iteration      1(  19)  ---------------------------------------


    POTLOK:  cpu time    0.1818: real time    0.1945
    SETDIJ:  cpu time    0.0099: real time    0.0099
    EDDIAG:  cpu time    0.3419: real time    0.3420
  RMM-DIIS:  cpu time    1.6060: real time    1.6064
    ORTHCH:  cpu time    0.0748: real time    0.0748
       DOS:  cpu time    0.0018: real time    0.0018
    CHARGE:  cpu time    0.1103: real time    0.1104
    MIXING:  cpu time    0.0050: real time    0.0050
    --------------------------------------------
      LOOP:  cpu time    2.3324: real time    2.3448

 eigenvalue-minimisations  :   809
 total energy-change (2. order) : 0.1120161E-01  (-0.7611799E-03)
 number of electron     671.0000064 magnetization 
 augmentation part      398.7817977 magnetization 

 Broyden mixing:
  rms(total) = 0.82772E-01    rms(broyden)= 0.82758E-01
  rms(prec ) = 0.94615E-01
  weight for this iteration     100.00

 eigenvalues of (default mixing * dielectric matrix)
  average eigenvalue GAMMA=   0.4002
  2.4735  1.3050  0.4998  0.4300  0.1470  0.1348  0.0338  0.1175  0.1018  0.0864
  0.0795  0.0718  0.0633  0.0593

 Free energy of the ion-electron system (eV)
  ---------------------------------------------------
  alpha Z        PSCENC =      1249.88091572
  Ewald energy   TEWEN  =    248445.36182444
  -Hartree energ DENC   =   -317708.23845230
  -exchange      EXHF   =         0.00000000
  -V(xc)+E(xc)   XCENC  =      2098.10788892
  PAW double counting   =     74908.67579913   -79294.54591235
  entropy T*S    EENTRO =        -4.05902840
  eigenvalues    EBANDS =     -1210.59646597
  atomic energy  EATOM  =     71145.21574525
  Solvation  Ediel_sol  =         0.00000000
  ---------------------------------------------------
  free energy    TOTEN  =      -370.19768556 eV

  energy without entropy =     -366.13865716  energy(sigma->0) =     -368.16817136


--------------------------------------------------------------------------------------------------------




--------------------------------------- Iteration      1(  20)  ---------------------------------------


    POTLOK:  cpu time    0.1823: real time    0.1959
    SETDIJ:  cpu time    0.0099: real time    0.0099
    EDDIAG:  cpu time    0.3387: real time    0.3389
  RMM-DIIS:  cpu time    1.6145: real time    1.6152
    ORTHCH:  cpu time    0.0739: real time    0.0740
       DOS:  cpu time    0.0018: real time    0.0018
    CHARGE:  cpu time    0.1099: real time    0.1099
    MIXING:  cpu time    0.0051: real time    0.0051
    --------------------------------------------
      LOOP:  cpu time    2.3353: real time    2.3507

 eigenvalue-minimisations  :   812
 total energy-change (2. order) : 0.2370422E-02  (-0.3265726E-03)
 number of electron     671.0000064 magnetization 
 augmentation part      398.7823572 magnetization 

 Broyden mixing:
  rms(total) = 0.34718E-01    rms(broyden)= 0.34707E-01
  rms(prec ) = 0.39040E-01
  weight for this iteration     100.00

 eigenvalues of (default mixing * dielectric matrix)
  average eigenvalue GAMMA=   0.4133
  2.5041  1.3113  0.5555  0.5555  0.4126  0.1414  0.1283  0.0338  0.1027  0.0978
  0.0855  0.0766  0.0717  0.0633  0.0589

 Free energy of the ion-electron system (eV)
  ---------------------------------------------------
  alpha Z        PSCENC =      1249.88091572
  Ewald energy   TEWEN  =    248445.36182444
  -Hartree energ DENC   =   -317708.32431836
  -exchange      EXHF   =         0.00000000
[...]
      0.005169  0.507205  6.006169            0           0           0  
      2.491840  1.947959  2.000002            0           0           0  
      2.478117  1.928956  8.147387            0           0           0  
      3.737772  1.228619  4.034573            0           0           0  
      2.491221  0.518595  6.026647            0           0           0  
      4.983685  1.947959  2.000002            0           0           0  
      5.019893  1.927866  8.138736            0           0           0  
      6.229617  1.228619  4.034573            0           0           0  
      4.994516  0.518186  6.025253            0           0           0  
      7.475530  1.947959  2.000002            0           0           0  
      7.531734  1.960804  8.064282            0           0           0  
      8.721462  1.228619  4.034573            0           0           0  
      7.480087  0.507121  6.006261            0           0           0  
     -1.245927  4.105960  2.000002            0           0           0  
     -1.236175  4.076086  8.069356            0           0           0  
      0.000005  3.386620  4.034573            0           0           0  
     -1.240496  2.668443  6.040260            0           0           0  
      1.245918  4.105960  2.000002            0           0           0  
      1.235057  4.113050  7.945823            0           0           0  
      2.491850  3.386620  4.034573            0           0           0  
      1.258613  2.653993  6.026706            0           0           0  
      3.737763  4.105960  2.000002            0           0           0  
      3.748108  4.128451  8.146978            0           0           0  
      4.983695  3.386620  4.034573            0           0           0  
      3.742628  2.664904  6.070056            0           0           0  
      6.229608  4.105960  2.000002            0           0           0  
      6.260359  4.113186  7.944665            0           0           0  
      7.475540  3.386620  4.034573            0           0           0  
      6.227757  2.654139  6.025285            0           0           0  
     -2.491850  6.263961  2.000002            0           0           0  
     -2.503963  6.271863  8.068920            0           0           0  
     -1.245918  5.544621  4.034573            0           0           0  
     -2.486495  4.823334  6.001166            0           0           0  
     -0.000005  6.263961  2.000002            0           0           0  
      0.031885  6.272013  8.069136            0           0           0  
      1.245927  5.544621  4.034573            0           0           0  
      0.004498  4.823141  6.001747            0           0           0  
      2.491840  6.263961  2.000002            0           0           0  
      2.464229  6.288948  8.064595            0           0           0  
      3.737772  5.544621  4.034573            0           0           0  
      2.510052  4.821564  6.026667            0           0           0  
      4.983685  6.263961  2.000002            0           0           0  
      5.031636  6.289895  8.064827            0           0           0  
      6.229617  5.544621  4.034573            0           0           0  
      4.975781  4.821854  6.026652            0           0           0  
     -3.737772  8.421962  2.000002            0           0           0  
     -3.735553  8.368812  8.064870            0           0           0  
     -2.491840  7.702622  4.034573            0           0           0  
     -3.729875  6.979224  6.040346            0           0           0  
     -1.245927  8.421962  2.000002            0           0           0  
     -1.236104  8.393053  7.944631            0           0           0  
      0.000005  7.702622  4.034573            0           0           0  
     -1.241160  6.980292  6.001144            0           0           0  
      1.245918  8.421962  2.000002            0           0           0  
      1.263770  8.368044  8.064132            0           0           0  
      2.491850  7.702622  4.034573            0           0           0  
      1.248124  6.978765  6.040224            0           0           0  
      3.737763  8.421962  2.000002            0           0           0  
      3.747388  8.417223  7.966211            0           0           0  
      4.983695  7.702622  4.034573            0           0           0  
      3.742568  6.980502  6.006168            0           0           0  
      1.132009  1.151972  9.212530            0           0           0  
      3.748125  5.682589  9.212553            0           0           0  
     -1.235436  5.539993  9.188405            0           0           0  
      6.364797  1.151652  9.211051            0           0           0  
      3.760148  2.655889  9.467156    -0.032916    0.023929    0.969691  
      3.793863  2.639172 10.440999     0.011350   -0.000290    0.240654  
 
   5 f  =    7.051352 THz    44.304954 2PiTHz  235.207794 cm-1    29.162060 meV
             X         Y         Z           dx          dy          dz
     -0.000005  1.947959  2.000002            0           0           0  
     -0.034683  1.960722  8.064793            0           0           0  
      1.245927  1.228619  4.034573            0           0           0  
      0.005169  0.507205  6.006169            0           0           0  
      2.491840  1.947959  2.000002            0           0           0  
      2.478117  1.928956  8.147387            0           0           0  
      3.737772  1.228619  4.034573            0           0           0  
      2.491221  0.518595  6.026647            0           0           0  
      4.983685  1.947959  2.000002            0           0           0  
      5.019893  1.927866  8.138736            0           0           0  
      6.229617  1.228619  4.034573            0           0           0  
      4.994516  0.518186  6.025253            0           0           0  
      7.475530  1.947959  2.000002            0           0           0  
      7.531734  1.960804  8.064282            0           0           0  
      8.721462  1.228619  4.034573            0           0           0  
      7.480087  0.507121  6.006261            0           0           0  
     -1.245927  4.105960  2.000002            0           0           0  
     -1.236175  4.076086  8.069356            0           0           0  
      0.000005  3.386620  4.034573            0           0           0  
     -1.240496  2.668443  6.040260            0           0           0  
      1.245918  4.105960  2.000002            0           0           0  
      1.235057  4.113050  7.945823            0           0           0  
      2.491850  3.386620  4.034573            0           0           0  
      1.258613  2.653993  6.026706            0           0           0  
      3.737763  4.105960  2.000002            0           0           0  
      3.748108  4.128451  8.146978            0           0           0  
      4.983695  3.386620  4.034573            0           0           0  
      3.742628  2.664904  6.070056            0           0           0  
      6.229608  4.105960  2.000002            0           0           0  
      6.260359  4.113186  7.944665            0           0           0  
      7.475540  3.386620  4.034573            0           0           0  
      6.227757  2.654139  6.025285            0           0           0  
     -2.491850  6.263961  2.000002            0           0           0  
     -2.503963  6.271863  8.068920            0           0           0  
     -1.245918  5.544621  4.034573            0           0           0  
     -2.486495  4.823334  6.001166            0           0           0  
     -0.000005  6.263961  2.000002            0           0           0  
      0.031885  6.272013  8.069136            0           0           0  
      1.245927  5.544621  4.034573            0           0           0  
      0.004498  4.823141  6.001747            0           0           0  
      2.491840  6.263961  2.000002            0           0           0  
      2.464229  6.288948  8.064595            0           0           0  
      3.737772  5.544621  4.034573            0           0           0  
      2.510052  4.821564  6.026667            0           0           0  
      4.983685  6.263961  2.000002            0           0           0  
      5.031636  6.289895  8.064827            0           0           0  
      6.229617  5.544621  4.034573            0           0           0  
      4.975781  4.821854  6.026652            0           0           0  
     -3.737772  8.421962  2.000002            0           0           0  
     -3.735553  8.368812  8.064870            0           0           0  
     -2.491840  7.702622  4.034573            0           0           0  
     -3.729875  6.979224  6.040346            0           0           0  
     -1.245927  8.421962  2.000002            0           0           0  
     -1.236104  8.393053  7.944631            0           0           0  
      0.000005  7.702622  4.034573            0           0           0  
     -1.241160  6.980292  6.001144            0           0           0  
      1.245918  8.421962  2.000002            0           0           0  
      1.263770  8.368044  8.064132            0           0           0  
      2.491850  7.702622  4.034573            0           0           0  
      1.248124  6.978765  6.040224            0           0           0  
      3.737763  8.421962  2.000002            0           0           0  
      3.747388  8.417223  7.966211            0           0           0  
      4.983695  7.702622  4.034573            0           0           0  
      3.742568  6.980502  6.006168            0           0           0  
      1.132009  1.151972  9.212530            0           0           0  
      3.748125  5.682589  9.212553            0           0           0  
     -1.235436  5.539993  9.188405            0           0           0  
      6.364797  1.151652  9.211051            0           0           0  
      3.760148  2.655889  9.467156    -0.826538    0.103413   -0.025602  
      3.793863  2.639172 10.440999    -0.548175    0.070408    0.005767  
 
   6 f  =    6.798936 THz    42.718974 2PiTHz  226.788080 cm-1    28.118148 meV
             X         Y         Z           dx          dy          dz
     -0.000005  1.947959  2.000002            0           0           0  
     -0.034683  1.960722  8.064793            0           0           0  
      1.245927  1.228619  4.034573            0           0           0  
      0.005169  0.507205  6.006169            0           0           0  
      2.491840  1.947959  2.000002            0           0           0  
      2.478117  1.928956  8.147387            0           0           0  
      3.737772  1.228619  4.034573            0           0           0  
      2.491221  0.518595  6.026647            0           0           0  
      4.983685  1.947959  2.000002            0           0           0  
      5.019893  1.927866  8.138736            0           0           0  
      6.229617  1.228619  4.034573            0           0           0  
      4.994516  0.518186  6.025253            0           0           0  
      7.475530  1.947959  2.000002            0           0           0  
      7.531734  1.960804  8.064282            0           0           0  
      8.721462  1.228619  4.034573            0           0           0  
      7.480087  0.507121  6.006261            0           0           0  
     -1.245927  4.105960  2.000002            0           0           0  
     -1.236175  4.076086  8.069356            0           0           0  
      0.000005  3.386620  4.034573            0           0           0  
     -1.240496  2.668443  6.040260            0           0           0  
      1.245918  4.105960  2.000002            0           0           0  
      1.235057  4.113050  7.945823            0           0           0  
      2.491850  3.386620  4.034573            0           0           0  
      1.258613  2.653993  6.026706            0           0           0  
      3.737763  4.105960  2.000002            0           0           0  
      3.748108  4.128451  8.146978            0           0           0  
      4.983695  3.386620  4.034573            0           0           0  
      3.742628  2.664904  6.070056            0           0           0  
      6.229608  4.105960  2.000002            0           0           0  
      6.260359  4.113186  7.944665            0           0           0  
      7.475540  3.386620  4.034573            0           0           0  
      6.227757  2.654139  6.025285            0           0           0  
     -2.491850  6.263961  2.000002            0           0           0  
     -2.503963  6.271863  8.068920            0           0           0  
     -1.245918  5.544621  4.034573            0           0           0  
     -2.486495  4.823334  6.001166            0           0           0  
     -0.000005  6.263961  2.000002            0           0           0  
      0.031885  6.272013  8.069136            0           0           0  
      1.245927  5.544621  4.034573            0           0           0  
      0.004498  4.823141  6.001747            0           0           0  
      2.491840  6.263961  2.000002            0           0           0  
      2.464229  6.288948  8.064595            0           0           0  
      3.737772  5.544621  4.034573            0           0           0  
      2.510052  4.821564  6.026667            0           0           0  
      4.983685  6.263961  2.000002            0           0           0  
      5.031636  6.289895  8.064827            0           0           0  
      6.229617  5.544621  4.034573            0           0           0  
      4.975781  4.821854  6.026652            0           0           0  
     -3.737772  8.421962  2.000002            0           0           0  
     -3.735553  8.368812  8.064870            0           0           0  
     -2.491840  7.702622  4.034573            0           0           0  
     -3.729875  6.979224  6.040346            0           0           0  
     -1.245927  8.421962  2.000002            0           0           0  
     -1.236104  8.393053  7.944631            0           0           0  
      0.000005  7.702622  4.034573            0           0           0  
     -1.241160  6.980292  6.001144            0           0           0  
      1.245918  8.421962  2.000002            0           0           0  
      1.263770  8.368044  8.064132            0           0           0  
      2.491850  7.702622  4.034573            0           0           0  
      1.248124  6.978765  6.040224            0           0           0  
      3.737763  8.421962  2.000002            0           0           0  
      3.747388  8.417223  7.966211            0           0           0  
      4.983695  7.702622  4.034573            0           0           0  
      3.742568  6.980502  6.006168            0           0           0  
      1.132009  1.151972  9.212530            0           0           0  
      3.748125  5.682589  9.212553            0           0           0  
     -1.235436  5.539993  9.188405            0           0           0  
      6.364797  1.151652  9.211051            0           0           0  
      3.760148  2.655889  9.467156    -0.105226   -0.823023    0.017357  
      3.793863  2.639172 10.440999    -0.068528   -0.553681    0.000070  
 
 Finite differences POTIM=  1.500000000000000E-002
     LOOP+:  cpu time   44.6608: real time   44.8967
    4ORBIT:  cpu time    0.0000: real time    0.0000
 


 total charge     
 
# of ion       s       p       d       tot
------------------------------------------
    1        0.484   0.358   8.332   9.174
    2        0.495   0.514   8.338   9.347
    3        0.493   0.489   8.340   9.321
    4        0.494   0.488   8.350   9.332
    5        0.484   0.358   8.331   9.173
    6        0.439   0.518   8.339   9.297
    7        0.488   0.483   8.340   9.311
    8        0.493   0.488   8.343   9.325
    9        0.484   0.358   8.331   9.173
   10        0.441   0.523   8.338   9.303
   11        0.493   0.489   8.340   9.321
   12        0.494   0.489   8.343   9.326
   13        0.484   0.358   8.332   9.174
   14        0.495   0.515   8.338   9.348
   15        0.490   0.488   8.343   9.321
   16        0.494   0.488   8.350   9.332
   17        0.485   0.357   8.332   9.174
   18        0.490   0.501   8.337   9.328
   19        0.489   0.487   8.343   9.319
   20        0.502   0.501   8.334   9.337
   21        0.483   0.357   8.332   9.173
   22        0.479   0.362   8.391   9.231
   23        0.488   0.483   8.340   9.311
   24        0.493   0.488   8.343   9.325
   25        0.484   0.358   8.331   9.173
   26        0.439   0.519   8.339   9.297
   27        0.488   0.483   8.340   9.311
   28        0.491   0.477   8.329   9.297
   29        0.483   0.357   8.332   9.173
   30        0.479   0.362   8.391   9.232
   31        0.489   0.487   8.343   9.319
   32        0.494   0.489   8.343   9.326
   33        0.485   0.357   8.332   9.174
   34        0.490   0.501   8.337   9.327
   35        0.494   0.494   8.340   9.327
   36        0.495   0.490   8.349   9.335
   37        0.485   0.357   8.332   9.174
   38        0.490   0.501   8.337   9.328
   39        0.489   0.487   8.343   9.319
   40        0.495   0.490   8.349   9.334
   41        0.484   0.358   8.332   9.174
   42        0.495   0.514   8.338   9.347
   43        0.493   0.489   8.340   9.321
   44        0.493   0.488   8.343   9.325
   45        0.484   0.358   8.332   9.174
   46        0.495   0.514   8.338   9.347
   47        0.489   0.487   8.343   9.319
   48        0.493   0.488   8.343   9.325
   49        0.484   0.358   8.332   9.174
   50        0.495   0.514   8.338   9.347
   51        0.489   0.487   8.343   9.319
   52        0.502   0.501   8.334   9.337
   53        0.483   0.357   8.332   9.173
   54        0.479   0.362   8.391   9.232
   55        0.489   0.487   8.343   9.319
   56        0.495   0.490   8.349   9.335
   57        0.484   0.358   8.332   9.174
   58        0.495   0.515   8.338   9.348
   59        0.490   0.488   8.343   9.321
   60        0.502   0.501   8.334   9.337
   61        0.483   0.357   8.334   9.173
   62        0.470   0.360   8.390   9.219
   63        0.490   0.488   8.342   9.321
   64        0.494   0.488   8.350   9.332
   65        1.583   3.328   0.000   4.912
   66        1.583   3.328   0.000   4.911
   67        1.582   3.330   0.000   4.912
   68        1.583   3.328   0.000   4.911
   69        1.548   3.556   0.000   5.104
   70        0.621   0.131   0.000   0.752
--------------------------------------------------
tot         39.675  45.961 533.881 619.517
 

 total amount of memory used by VASP MPI-rank0    54101. kBytes
=======================================================================

   base      :      30000. kBytes
   nonlr-proj:       3941. kBytes
   fftplans  :       5964. kBytes
   grid      :      11929. kBytes
   one-center:         23. kBytes
   wavefun   :       2244. kBytes
 
  
  
 General timing and accounting informations for this job:
 ========================================================
  
                  Total CPU time used (sec):      623.110
                            User time (sec):      616.433
                          System time (sec):        6.678
                         Elapsed time (sec):      627.640
  
                   Maximum memory used (kb):      294360.
                   Average memory used (kb):           0.
  
                          Minor page faults:      1838804
                          Major page faults:            1
                 Voluntary context switches:         1436
