       N       E                     dE             d eps       ncg     rms          rms(c)
DAV:   1    -0.344596193232E+03   -0.34460E+03   -0.15558E+03  9378   0.468E+01    0.683E+00
RMM:   2    -0.360931216085E+03   -0.16335E+02   -0.14069E+02  8720   0.220E+01    0.303E+01
RMM:   3    -0.362281177487E+03   -0.13500E+01   -0.60922E+00  8729   0.468E+00    0.377E+01
RMM:   4    -0.359382271463E+03    0.28989E+01   -0.19711E+00  8783   0.328E+00    0.188E+01
RMM:   5    -0.358312417169E+03    0.10699E+01   -0.81687E-01  8741   0.231E+00    0.573E+00
RMM:   6    -0.358421359342E+03   -0.10894E+00   -0.28267E-01  8714   0.126E+00    0.838E+00
RMM:   7    -0.358288895085E+03    0.13246E+00   -0.94011E-02  8727   0.801E-01    0.496E+00
RMM:   8    -0.358289050625E+03   -0.15554E-03   -0.13244E-02  8944   0.247E-01    0.498E+00
RMM:   9    -0.358281679782E+03    0.73708E-02   -0.72203E-03  8725   0.185E-01    0.488E+00
RMM:  10    -0.358265580808E+03    0.16099E-01   -0.59030E-03  8721   0.181E-01    0.447E+00
RMM:  11    -0.358176392425E+03    0.89188E-01   -0.22816E-02  8697   0.321E-01    0.298E+00
RMM:  12    -0.358091582698E+03    0.84810E-01   -0.13407E-02  8699   0.272E-01    0.140E+00
RMM:  13    -0.358074327300E+03    0.17255E-01   -0.41750E-03  8731   0.155E-01    0.129E+00
RMM:  14    -0.358046860776E+03    0.27467E-01   -0.34792E-03  8725   0.136E-01    0.131E+00
RMM:  15    -0.358038424726E+03    0.84360E-02   -0.26839E-03  8690   0.129E-01    0.123E+00
RMM:  16    -0.358028892051E+03    0.95327E-02   -0.26528E-03  8684   0.123E-01    0.132E+00
RMM:  17    -0.358017089627E+03    0.11802E-01   -0.20735E-03  8696   0.116E-01    0.873E-01
RMM:  18    -0.358028133020E+03   -0.11043E-01   -0.10208E-03  8706   0.750E-02    0.943E-01
RMM:  19    -0.358059149065E+03   -0.31016E-01   -0.12228E-03  8708   0.765E-02    0.655E-01
RMM:  20    -0.358075674355E+03   -0.16525E-01   -0.40865E-04  8642   0.440E-02    0.549E-01
RMM:  21    -0.358154253495E+03   -0.78579E-01   -0.20475E-03  8660   0.623E-02    0.372E-01
RMM:  22    -0.358197603906E+03   -0.43350E-01   -0.12860E-03  8676   0.561E-02    0.300E-01
RMM:  23    -0.358223798805E+03   -0.26195E-01   -0.76077E-04  8642   0.437E-02    0.388E-01
RMM:  24    -0.358247010557E+03   -0.23212E-01   -0.79943E-04  8637   0.405E-02    0.293E-01
RMM:  25    -0.358254998728E+03   -0.79882E-02   -0.31274E-04  8599   0.316E-02    0.276E-01
RMM:  26    -0.358269026535E+03   -0.14028E-01   -0.83529E-04  8620   0.396E-02    0.253E-01
RMM:  27    -0.358273709168E+03   -0.46826E-02   -0.28910E-04  8577   0.297E-02    0.112E-01
RMM:  28    -0.358276106078E+03   -0.23969E-02   -0.11326E-04  8165   0.196E-02    0.132E-01
RMM:  29    -0.358279017449E+03   -0.29114E-02   -0.14522E-04  8004   0.185E-02    0.102E-01
RMM:  30    -0.358279624801E+03   -0.60735E-03   -0.35557E-05  6026   0.125E-02    0.689E-02
RMM:  31    -0.358280362634E+03   -0.73783E-03   -0.74987E-05  6891   0.139E-02    0.896E-02
RMM:  32    -0.358280384906E+03   -0.22271E-04   -0.30898E-05  5541   0.116E-02    0.458E-02
RMM:  33    -0.358280399158E+03   -0.14252E-04   -0.85816E-06  4989   0.677E-03    0.467E-02
RMM:  34    -0.358280477038E+03   -0.77880E-04   -0.11464E-05  5084   0.700E-03    0.350E-02
RMM:  35    -0.358280509764E+03   -0.32726E-04   -0.33030E-06  4850   0.438E-03    0.318E-02
RMM:  36    -0.358280646358E+03   -0.13659E-03   -0.68555E-06  5081   0.455E-03    0.250E-02
RMM:  37    -0.358280677117E+03   -0.30759E-04   -0.14962E-06  4820   0.297E-03    0.181E-02
RMM:  38    -0.358280756567E+03   -0.79450E-04   -0.11630E-06  4782   0.201E-03    0.126E-02
RMM:  39    -0.358280797150E+03   -0.40582E-04   -0.61087E-07  4481   0.184E-03    0.584E-03
RMM:  40    -0.358280831926E+03   -0.34777E-04   -0.35962E-07  3725   0.130E-03    0.762E-03
RMM:  41    -0.358280922250E+03   -0.90324E-04   -0.14437E-06  4560   0.161E-03    0.873E-03
RMM:  42    -0.358280970356E+03   -0.48106E-04   -0.68205E-07  4085   0.142E-03    0.765E-03
RMM:  43    -0.358281048900E+03   -0.78544E-04   -0.14390E-06  3177   0.133E-03    0.891E-03
RMM:  44    -0.358281097517E+03   -0.48617E-04   -0.71425E-07  2523   0.107E-03    0.777E-03
RMM:  45    -0.358281115316E+03   -0.17799E-04   -0.29918E-07  1987   0.101E-03    0.827E-03
RMM:  46    -0.358281136231E+03   -0.20915E-04   -0.94597E-07  2293   0.109E-03    0.647E-03
RMM:  47    -0.358281131625E+03    0.46070E-05   -0.24676E-08  1076   0.859E-04
   1 F= -.37627299E+03 E0= -.37624360E+03  d E =-.376273E+03  mag=    42.7057
       N       E                     dE             d eps       ncg     rms          rms(c)
DAV:   1    -0.358282064980E+03   -0.92875E-03   -0.69054E-01  8937   0.127E+00    0.261E-01
RMM:   2    -0.358292371763E+03   -0.10307E-01   -0.21621E-02  8903   0.314E-01    0.186E+00
RMM:   3    -0.358286617437E+03    0.57543E-02   -0.27908E-03  8753   0.128E-01    0.113E+00
RMM:   4    -0.358284501377E+03    0.21161E-02   -0.19105E-03  8672   0.105E-01    0.614E-01
RMM:   5    -0.358284518255E+03   -0.16878E-04   -0.94939E-04  8686   0.764E-02    0.539E-01
RMM:   6    -0.358283652792E+03    0.86546E-03   -0.50046E-04  8643   0.587E-02    0.199E-01
RMM:   7    -0.358283799001E+03   -0.14621E-03   -0.34702E-04  8642   0.435E-02    0.327E-01
RMM:   8    -0.358283475740E+03    0.32326E-03   -0.25769E-04  8640   0.413E-02    0.212E-01
RMM:   9    -0.358283363949E+03    0.11179E-03   -0.13157E-04  8472   0.282E-02    0.102E-01
RMM:  10    -0.358283338069E+03    0.25880E-04   -0.56429E-05  7225   0.186E-02    0.106E-01
RMM:  11    -0.358283301226E+03    0.36843E-04   -0.29314E-05  5903   0.144E-02    0.285E-02
RMM:  12    -0.358283308049E+03   -0.68229E-05   -0.48667E-06  4710   0.550E-03
   2 F= -.37627477E+03 E0= -.37624604E+03  d E =-.177835E-02  mag=    42.7172
       N       E                     dE             d eps       ncg     rms          rms(c)
DAV:   1    -0.358283372143E+03   -0.70917E-04   -0.20029E-01  8847   0.686E-01    0.146E-01
RMM:   2    -0.358287186514E+03   -0.38144E-02   -0.66298E-03  8856   0.175E-01    0.113E+00
RMM:   3    -0.358284830739E+03    0.23558E-02   -0.92556E-04  8737   0.744E-02    0.655E-01
RMM:   4    -0.358284102945E+03    0.72779E-03   -0.63432E-04  8626   0.606E-02    0.336E-01
RMM:   5    -0.358284155511E+03   -0.52566E-04   -0.31303E-04  8569   0.436E-02    0.319E-01
RMM:   6    -0.358283857974E+03    0.29754E-03   -0.16547E-04  8479   0.340E-02    0.120E-01
RMM:   7    -0.358283911457E+03   -0.53483E-04   -0.79771E-05  8047   0.214E-02    0.198E-01
RMM:   8    -0.358283827542E+03    0.83915E-04   -0.68144E-05  7997   0.210E-02    0.123E-01
RMM:   9    -0.358283780661E+03    0.46881E-04   -0.50279E-05  7285   0.182E-02    0.451E-02
RMM:  10    -0.358283807065E+03   -0.26404E-04   -0.20338E-05  5232   0.114E-02    0.755E-02
RMM:  11    -0.358283800304E+03    0.67614E-05   -0.12979E-05  4772   0.107E-02
   3 F= -.37627506E+03 E0= -.37624666E+03  d E =-.206639E-02  mag=    42.7277
