 vasp.5.4.4.18Apr17-6-g9f103f2a35 (build Dec 15 2018 21:27:11) complex          
  
 executed on             LinuxIFC date 2022.02.17  20:00:44
 running on   72 total cores
 distrk:  each k-point on   72 cores,    1 groups
 distr:  one band on NCORES_PER_BAND=  24 cores,    3 groups


--------------------------------------------------------------------------------------------------------


 INCAR:
 POTCAR:    PAW_PBE Ni 02Aug2007                  
 POTCAR:    PAW_PBE O 08Apr2002                   

 ----------------------------------------------------------------------------- 
|                                                                             |
|           W    W    AA    RRRRR   N    N  II  N    N   GGGG   !!!           |
|           W    W   A  A   R    R  NN   N  II  NN   N  G    G  !!!           |
|           W    W  A    A  R    R  N N  N  II  N N  N  G       !!!           |
|           W WW W  AAAAAA  RRRRR   N  N N  II  N  N N  G  GGG   !            |
|           WW  WW  A    A  R   R   N   NN  II  N   NN  G    G                |
|           W    W  A    A  R    R  N    N  II  N    N   GGGG   !!!           |
|                                                                             |
|      For optimal performance we recommend to set                            |
|        NCORE= 4 - approx SQRT( number of cores)                             |
|      NCORE specifies how many cores store one orbital (NPAR=cpu/NCORE).     |
|      This setting can  greatly improve the performance of VASP for DFT.     |
|      The default,   NCORE=1            might be grossly inefficient         |
|      on modern multi-core architectures or massively parallel machines.     |
|      Do your own testing !!!!                                               |
|      Unfortunately you need to use the default for GW and RPA calculations. |
|      (for HF NCORE is supported but not extensively tested yet)             |
|                                                                             |
 ----------------------------------------------------------------------------- 

 POTCAR:    PAW_PBE Ni 02Aug2007                  
   VRHFIN =Ni:                                                                  
   LEXCH  = PE                                                                  
   EATOM  =  1077.6739 eV,   79.2068 Ry                                         
                                                                                
   TITEL  = PAW_PBE Ni 02Aug2007                                                
   LULTRA =        F    use ultrasoft PP ?                                      
   IUNSCR =        1    unscreen: 0-lin 1-nonlin 2-no                           
   RPACOR =    2.000    partial core radius                                     
   POMASS =   58.690; ZVAL   =   10.000    mass and valenz                      
   RCORE  =    2.300    outmost cutoff radius                                   
   RWIGS  =    2.430; RWIGS  =    1.286    wigner-seitz radius (au A)           
   ENMAX  =  269.532; ENMIN  =  202.149 eV                                      
   RCLOC  =    1.201    cutoff for local pot                                    
   LCOR   =        T    correct aug charges                                     
   LPAW   =        T    paw PP                                                  
   EAUG   =  544.565                                                            
   DEXC   =    0.000                                                            
   RMAX   =    2.357    core radius for proj-oper                               
   RAUG   =    1.300    factor for augmentation sphere                          
   RDEP   =    2.390    radius for radial grids                                 
   RDEPT  =    1.838    core radius for aug-charge                              
                                                                                
   Atomic configuration                                                         
    9 entries                                                                   
     n  l   j            E        occ.                                          
     1  0  0.50     -8206.4253   2.0000                                         
     2  0  0.50      -976.1748   2.0000                                         
     2  1  1.50      -839.0571   6.0000                                         
     3  0  0.50      -105.9991   2.0000                                         
     3  1  1.50       -66.4603   6.0000                                         
     3  2  2.50        -4.6458   9.0000                                         
     4  0  0.50        -4.4926   1.0000                                         
     4  1  1.50        -4.0817   0.0000                                         
     4  3  2.50        -1.3606   0.0000                                         
   Description                                                                  
     l       E           TYP  RCUT    TYP  RCUT                                 
     2     -4.6457903     23  2.300                                             
     2     -6.0063729     23  2.300                                             
     0     -4.4925590     23  2.300                                             
     0      5.0102601     23  2.300                                             
     1     -2.7211652     23  2.300                                             
     1     16.5183231     23  2.300                                             
  local pseudopotential read in
  partial core-charges read in
  partial kinetic energy density read in
  atomic valenz-charges read in
  non local Contribution for L=           2  read in
    real space projection operators read in
  non local Contribution for L=           2  read in
    real space projection operators read in
  non local Contribution for L=           0  read in
    real space projection operators read in
  non local Contribution for L=           0  read in
    real space projection operators read in
  non local Contribution for L=           1  read in
    real space projection operators read in
  non local Contribution for L=           1  read in
    real space projection operators read in
    PAW grid and wavefunctions read in
 
   number of l-projection  operators is LMAX  =           6
   number of lm-projection operators is LMMAX =          18
 
 POTCAR:    PAW_PBE O 08Apr2002                   
   VRHFIN =O: s2p4                                                              
   LEXCH  = PE                                                                  
   EATOM  =   432.3788 eV,   31.7789 Ry                                         
                                                                                
   TITEL  = PAW_PBE O 08Apr2002                                                 
   LULTRA =        F    use ultrasoft PP ?                                      
   IUNSCR =        1    unscreen: 0-lin 1-nonlin 2-no                           
   RPACOR =    1.200    partial core radius                                     
   POMASS =   16.000; ZVAL   =    6.000    mass and valenz                      
   RCORE  =    1.520    outmost cutoff radius                                   
   RWIGS  =    1.550; RWIGS  =    0.820    wigner-seitz radius (au A)           
   ENMAX  =  400.000; ENMIN  =  300.000 eV                                      
   ICORE  =        2    local potential                                         
   LCOR   =        T    correct aug charges                                     
   LPAW   =        T    paw PP                                                  
   EAUG   =  605.392                                                            
   DEXC   =    0.000                                                            
   RMAX   =    1.553    core radius for proj-oper                               
   RAUG   =    1.300    factor for augmentation sphere                          
   RDEP   =    1.550    radius for radial grids                                 
   RDEPT  =    1.329    core radius for aug-charge                              
                                                                                
   Atomic configuration                                                         
    4 entries                                                                   
     n  l   j            E        occ.                                          
     1  0  0.50      -514.6923   2.0000                                         
     2  0  0.50       -23.9615   2.0000                                         
     2  1  0.50        -9.0305   4.0000                                         
     3  2  1.50        -9.5241   0.0000                                         
   Description                                                                  
     l       E           TYP  RCUT    TYP  RCUT                                 
     0    -23.9615318     23  1.200                                             
     0     -9.5240782     23  1.200                                             
     1     -9.0304911     23  1.520                                             
     1      8.1634956     23  1.520                                             
     2     -9.5240782      7  1.500                                             
  local pseudopotential read in
  partial core-charges read in
  partial kinetic energy density read in
  kinetic energy density of atom read in
  atomic valenz-charges read in
  non local Contribution for L=           0  read in
    real space projection operators read in
  non local Contribution for L=           0  read in
    real space projection operators read in
  non local Contribution for L=           1  read in
    real space projection operators read in
  non local Contribution for L=           1  read in
    real space projection operators read in
    PAW grid and wavefunctions read in
 
   number of l-projection  operators is LMAX  =           4
   number of lm-projection operators is LMMAX =           8
 
 Optimization of the real space projectors (new method)

 maximal supplied QI-value         = 16.25
 optimisation between [QCUT,QGAM] = [ 11.54, 23.24] = [ 37.28,151.24] Ry 
 Optimized for a Real-space Cutoff    1.45 Angstroem

   l    n(q)    QCUT    max X(q) W(low)/X(q) W(high)/X(q)  e(spline) 
   2      9    11.539    60.317    0.19E-03    0.47E-04    0.16E-06
   2      9    11.539    55.921    0.19E-03    0.48E-04    0.16E-06
   0     10    11.539    51.690    0.80E-04    0.50E-04    0.24E-06
   0     10    11.539    30.015    0.73E-04    0.45E-04    0.22E-06
   1     10    11.539    18.849    0.87E-04    0.16E-03    0.71E-07
   1     10    11.539    14.624    0.73E-04    0.13E-03    0.64E-07
 Optimization of the real space projectors (new method)

 maximal supplied QI-value         = 24.76
 optimisation between [QCUT,QGAM] = [ 11.64, 23.27] = [ 37.91,151.63] Ry 
 Optimized for a Real-space Cutoff    1.14 Angstroem

   l    n(q)    QCUT    max X(q) W(low)/X(q) W(high)/X(q)  e(spline) 
   0      8    11.635    20.381    0.10E-03    0.33E-03    0.24E-06
   0      8    11.635    15.268    0.11E-03    0.35E-03    0.26E-06
   1      7    11.635     5.964    0.24E-03    0.31E-03    0.30E-06
   1      7    11.635     5.382    0.22E-03    0.25E-03    0.26E-06
  PAW_PBE Ni 02Aug2007                  :
 energy of atom  1       EATOM=-1077.6739
 kinetic energy error for atom=    0.0030 (will be added to EATOM!!)
  PAW_PBE O 08Apr2002                   :
 energy of atom  2       EATOM= -432.3788
 kinetic energy error for atom=    0.0208 (will be added to EATOM!!)
 
 
 POSCAR: POSCAR                                  
  positions in direct lattice
  velocities in cartesian coordinates
 exchange correlation table for  LEXCH =        8
   RHO(1)=    0.500       N(1)  =     2000
   RHO(2)=  100.500       N(2)  =     4000

 VTST: version 3.2, (02/03/18)

 CHAIN: initializing optimizer
 
 OPT: Using VASP Conjugate-Gradient optimizer
 CHAIN: Read ICHAIN            0
 
 POSCAR: POSCAR                                  
  positions in direct lattice
  velocities in cartesian coordinates
 


--------------------------------------------------------------------------------------------------------


 ion  position               nearest neighbor table
   1  0.113  0.226  0.095-  15 2.49  19 2.49   3 2.49   5 2.49  13 2.49  17 2.49  21 2.49  49 2.49
                            61 2.49
   2  0.111  0.228  0.383-  65 1.83  14 2.44  18 2.44  20 2.47  22 2.49  62 2.50  24 2.52   4 2.52
                            50 2.55   6 2.55
   3  0.196  0.142  0.191-  24 2.44   8 2.44   4 2.44   5 2.49  49 2.49   1 2.49   7 2.49  15 2.49
                            19 2.49  23 2.49  51 2.49  63 2.49
   4  0.030  0.059  0.285-  62 2.42   3 2.44  15 2.44  63 2.44  24 2.48   8 2.48  20 2.49  52 2.49
                            16 2.50  64 2.50   2 2.52  50 2.52
   5  0.363  0.226  0.095-   3 2.49  23 2.49   7 2.49   9 2.49   1 2.49  21 2.49  25 2.49  49 2.49
                            53 2.49
   6  0.366  0.227  0.383-  65 1.83  10 2.44  26 2.44  28 2.47  54 2.49  22 2.50   8 2.52  24 2.52
                            50 2.55   2 2.55
   7  0.446  0.142  0.191-   8 2.45  12 2.45  28 2.47   9 2.49  53 2.49   5 2.49  11 2.49   3 2.49
                            23 2.49  51 2.49  27 2.49  55 2.49
   8  0.279  0.059  0.285-  54 2.42   3 2.44  51 2.44   7 2.45  24 2.48   4 2.48  52 2.49  28 2.49
                            56 2.50  12 2.50   6 2.52  50 2.52
   9  0.613  0.226  0.095-   7 2.49  27 2.49  11 2.49  13 2.49   5 2.49  25 2.49  29 2.49  53 2.49
                            57 2.49
  10  0.611  0.227  0.383-  68 1.83   6 2.44  26 2.44  28 2.47  54 2.50  30 2.50  12 2.52  32 2.52
                            58 2.55  14 2.55
  11  0.696  0.142  0.191-  32 2.44  16 2.44  12 2.44  13 2.49  57 2.49   9 2.49  15 2.49   7 2.49
                            27 2.49  55 2.49  31 2.49  59 2.49
  12  0.530  0.059  0.285-  54 2.42  11 2.44  55 2.44   7 2.45  16 2.48  32 2.48  60 2.49  28 2.49
                            56 2.50   8 2.50  10 2.52  58 2.52
  13  0.863  0.226  0.095-  11 2.49  31 2.49  15 2.49   9 2.49   1 2.49  29 2.49  17 2.49  57 2.49
                            61 2.49
  14  0.867  0.228  0.383-  68 1.83   2 2.44  18 2.44  20 2.47  30 2.49  62 2.50  16 2.52  32 2.52
                            58 2.55  10 2.55
  15  0.946  0.142  0.191-   4 2.44  16 2.45  20 2.47   1 2.49  61 2.49  13 2.49   3 2.49  11 2.49
                            31 2.49  59 2.49  19 2.49  63 2.49
  16  0.779  0.059  0.285-  62 2.42  11 2.44  59 2.44  15 2.45  12 2.48  32 2.48  60 2.49  20 2.49
                             4 2.50  64 2.50  14 2.52  58 2.52
  17  0.113  0.476  0.095-  31 2.49  35 2.49  19 2.49  21 2.49  29 2.49  13 2.49  33 2.49   1 2.49
                            37 2.49
  18  0.111  0.472  0.383-  67 1.83  14 2.44   2 2.44  20 2.47  22 2.49  30 2.50  40 2.52  36 2.52
                            38 2.55  34 2.55
  19  0.196  0.392  0.191-  40 2.44  24 2.45  20 2.47  21 2.49   1 2.49  17 2.49  31 2.49  23 2.49
                            15 2.49  35 2.49  39 2.49   3 2.49
  20  0.030  0.309  0.286-  14 2.47   2 2.47  18 2.47  19 2.47  15 2.47  31 2.47  40 2.49   4 2.49
                            36 2.49  24 2.49  32 2.49  16 2.49
  21  0.363  0.476  0.095-  19 2.49  39 2.49  23 2.49  25 2.49  17 2.49   5 2.49  37 2.49   1 2.49
                            41 2.49
  22  0.363  0.476  0.377-  24 2.42  44 2.42  40 2.42   2 2.49  18 2.49  26 2.50  42 2.50   6 2.50
                            38 2.50
  23  0.446  0.392  0.191-  24 2.44  44 2.44  28 2.47  25 2.49   5 2.49  21 2.49  19 2.49  27 2.49
                             7 2.49  39 2.49  43 2.49   3 2.49
  24  0.279  0.308  0.285-  22 2.42   3 2.44  23 2.44  19 2.45   8 2.48   4 2.48  28 2.49  20 2.49
                            44 2.50  40 2.50   2 2.52   6 2.52
  25  0.613  0.476  0.095-  23 2.49  43 2.49  27 2.49  29 2.49  21 2.49   9 2.49  41 2.49   5 2.49
                            45 2.49
  26  0.611  0.472  0.383-  66 1.83  10 2.44   6 2.44  28 2.47  22 2.50  30 2.50  44 2.52  48 2.53
                            42 2.55  46 2.55
  27  0.696  0.392  0.191-  48 2.44  32 2.45  28 2.47  29 2.49   9 2.49  25 2.49  23 2.49  31 2.49
                            11 2.49  43 2.49  47 2.49   7 2.49
  28  0.529  0.309  0.286-  10 2.47   6 2.47  26 2.47   7 2.47  23 2.47  27 2.47  24 2.49   8 2.49
                            48 2.49  12 2.49  44 2.49  32 2.49
  29  0.863  0.476  0.095-  27 2.49  47 2.49  31 2.49  25 2.49  17 2.49  13 2.49  33 2.49  45 2.49
                             9 2.49
  30  0.863  0.476  0.377-  32 2.42  36 2.42  48 2.42  14 2.49  18 2.50  46 2.50  34 2.50  26 2.50
                            10 2.50
  31  0.946  0.392  0.191-  36 2.44  32 2.45  20 2.47  17 2.49  13 2.49  29 2.49  27 2.49  19 2.49
                            15 2.49  35 2.49  11 2.49  47 2.49
  32  0.779  0.308  0.285-  30 2.42  11 2.44  31 2.45  27 2.45  16 2.48  12 2.48  28 2.49  20 2.49
                            48 2.50  36 2.50  14 2.52  10 2.52
  33  0.113  0.726  0.095-  47 2.49  51 2.49  35 2.49  37 2.49  45 2.49  29 2.49  49 2.49  17 2.49
                            53 2.49
  34  0.111  0.727  0.383-  67 1.83  46 2.44  50 2.44  52 2.47  54 2.49  30 2.50  36 2.52  56 2.52
                            18 2.55  38 2.55
  35  0.196  0.642  0.191-  56 2.44  40 2.44  36 2.44  37 2.49  17 2.49  33 2.49  47 2.49  39 2.49
                            31 2.49  51 2.49  55 2.49  19 2.49
  36  0.030  0.559  0.285-  30 2.42  35 2.44  31 2.44  47 2.44  56 2.48  40 2.48  20 2.49  52 2.49
                            48 2.50  32 2.50  34 2.52  18 2.52
  37  0.363  0.726  0.095-  35 2.49  55 2.49  39 2.49  41 2.49  33 2.49  21 2.49  53 2.49  17 2.49
                            57 2.49
  38  0.367  0.727  0.383-  67 1.83  42 2.44  58 2.44  60 2.47  54 2.49  22 2.50  40 2.52  56 2.52
                            18 2.55  34 2.55
  39  0.446  0.642  0.191-  40 2.44  44 2.45  60 2.47  41 2.49  21 2.49  37 2.49  35 2.49  43 2.49
                            23 2.49  55 2.49  59 2.49  19 2.49
  40  0.279  0.559  0.285-  22 2.42  35 2.44  39 2.44  19 2.44  56 2.48  36 2.48  60 2.49  20 2.49
                            44 2.50  24 2.50  18 2.52  38 2.52
  41  0.613  0.726  0.095-  39 2.49  59 2.49  43 2.49  45 2.49  37 2.49  25 2.49  57 2.49  21 2.49
                            61 2.49
  42  0.611  0.727  0.383-  66 1.83  38 2.44  58 2.44  60 2.47  22 2.50  62 2.50  44 2.52  64 2.52
                            26 2.55  46 2.55
  43  0.696  0.642  0.191-  64 2.44  48 2.44  44 2.44  45 2.49  25 2.49  41 2.49  39 2.49  47 2.49
                            27 2.49  59 2.49  63 2.49  23 2.49
  44  0.530  0.559  0.285-  22 2.42  43 2.44  23 2.44  39 2.45  48 2.48  64 2.48  28 2.49  60 2.49
                            24 2.50  40 2.50  42 2.52  26 2.52
  45  0.863  0.726  0.095-  43 2.49  63 2.49  47 2.49  41 2.49  33 2.49  29 2.49  49 2.49  61 2.49
                            25 2.49
  46  0.867  0.727  0.383-  66 1.83  34 2.44  50 2.44  52 2.47  62 2.49  30 2.50  48 2.52  64 2.52
                            26 2.55  42 2.55
  47  0.946  0.642  0.191-  36 2.44  48 2.45  52 2.47  33 2.49  29 2.49  45 2.49  43 2.49  35 2.49
                            31 2.49  51 2.49  27 2.49  63 2.49
  48  0.779  0.559  0.285-  30 2.42  43 2.44  27 2.44  47 2.45  44 2.48  64 2.48  28 2.49  52 2.49
                            32 2.50  36 2.50  46 2.52  26 2.53
  49  0.113  0.976  0.095-  63 2.49   3 2.49  51 2.49  61 2.49  53 2.49   1 2.49   5 2.49  33 2.49
                            45 2.49
  50  0.111  0.972  0.383-  65 1.83  46 2.44  34 2.44  52 2.47  62 2.49  54 2.50   8 2.52   4 2.52
                             6 2.55   2 2.55
  51  0.196  0.892  0.191-   8 2.44  56 2.44  52 2.47  53 2.49  33 2.49  49 2.49  55 2.49  63 2.49
                            35 2.49  47 2.49   3 2.49   7 2.49
  52  0.029  0.809  0.286-  46 2.47  34 2.47  50 2.47  47 2.47  63 2.47  51 2.47   8 2.49  36 2.49
                             4 2.49  64 2.49  56 2.49  48 2.49
  53  0.363  0.976  0.095-  51 2.49   7 2.49  55 2.49  49 2.49  57 2.49   5 2.49   9 2.49  33 2.49
                            37 2.49
  54  0.363  0.976  0.377-  56 2.42   8 2.42  12 2.42  34 2.49  38 2.49   6 2.49  50 2.50  10 2.50
                            58 2.50
  55  0.446  0.892  0.191-  12 2.44  56 2.44  60 2.47  57 2.49  37 2.49  53 2.49  59 2.49  51 2.49
                            11 2.49  39 2.49   7 2.49  35 2.49
  56  0.279  0.808  0.285-  54 2.42  35 2.44  55 2.44  51 2.44  40 2.48  36 2.48  60 2.49  52 2.49
                             8 2.50  12 2.50  34 2.52  38 2.52
  57  0.613  0.976  0.095-  55 2.49  11 2.49  59 2.49  53 2.49  61 2.49   9 2.49  13 2.49  37 2.49
                            41 2.49
  58  0.611  0.972  0.383-  68 1.83  42 2.44  38 2.44  60 2.47  62 2.50  54 2.50  12 2.52  16 2.52
                            10 2.55  14 2.55
  59  0.696  0.892  0.191-  16 2.44  64 2.45  60 2.47  61 2.49  41 2.49  57 2.49  63 2.49  55 2.49
                            15 2.49  43 2.49  11 2.49  39 2.49
  60  0.529  0.809  0.286-  42 2.47  38 2.47  58 2.47  39 2.47  55 2.47  59 2.47  40 2.49  12 2.49
                            64 2.49  56 2.49  16 2.49  44 2.49
  61  0.863  0.976  0.095-  59 2.49  15 2.49  63 2.49  49 2.49  57 2.49  13 2.49   1 2.49  41 2.49
                            45 2.49
  62  0.863  0.976  0.377-  64 2.42   4 2.42  16 2.42  50 2.49  46 2.49  58 2.50  14 2.50   2 2.50
                            42 2.50
  63  0.946  0.892  0.191-   4 2.44  64 2.45  52 2.47  49 2.49  45 2.49  61 2.49  51 2.49  59 2.49
                             3 2.49  47 2.49  15 2.49  43 2.49
  64  0.779  0.808  0.285-  62 2.42  43 2.44  59 2.45  63 2.45  44 2.48  48 2.48  60 2.49  52 2.49
                            16 2.50   4 2.50  46 2.52  42 2.52
  65  0.196  0.142  0.435-  50 1.83   2 1.83   6 1.83
  66  0.696  0.642  0.435-  26 1.83  46 1.83  42 1.83
  67  0.196  0.642  0.435-  34 1.83  38 1.83  18 1.83
  68  0.696  0.142  0.435-  58 1.83  14 1.83  10 1.83
 

IMPORTANT INFORMATION: All symmetrisations will be switched off!
NOSYMM: (Re-)initialisation of all symmetry stuff for point group C_1.

 
 

Automatic generation of k-mesh.
 generate k-points for:    3    3    1
Space group operators:
 irot       det(A)        alpha          n_x          n_y          n_z        tau_x        tau_y        tau_z
    1     1.000000     0.000000     1.000000     0.000000     0.000000     0.000000     0.000000     0.000000
 
 Subroutine IBZKPT returns following result:
 ===========================================
 
 Found      5 irreducible k-points:
 
 Following reciprocal coordinates:
            Coordinates               Weight
  0.000000  0.000000  0.000000      1.000000
  0.333333  0.000000  0.000000      2.000000
  0.000000  0.333333  0.000000      2.000000
  0.333333  0.333333  0.000000      2.000000
 -0.333333  0.333333  0.000000      2.000000
 
 Following cartesian coordinates:
            Coordinates               Weight
  0.000000  0.000000  0.000000      1.000000
  0.033442  0.019308  0.000000      2.000000
  0.000000  0.038616  0.000000      2.000000
  0.033442  0.057924  0.000000      2.000000
 -0.033442  0.019308  0.000000      2.000000
 


--------------------------------------------------------------------------------------------------------




 Dimension of arrays:
   k-points           NKPTS =      5   k-points in BZ     NKDIM =      5   number of bands    NBANDS=    432
   number of dos      NEDOS =    301   number of ions     NIONS =     68
   non local maximal  LDIM  =      6   non local SUM 2l+1 LMDIM =     18
   total plane-waves  NPLWV = ******
   max r-space proj   IRMAX =   7188   max aug-charges    IRDMAX=  18478
   dimension x,y,z NGX =    80 NGY =   80 NGZ =  160
   dimension x,y,z NGXF=   160 NGYF=  160 NGZF=  320
   support grid    NGXF=   160 NGYF=  160 NGZF=  320
   ions per type =              64   4
   NGX,Y,Z   is equivalent  to a cutoff of  13.34, 13.34, 12.60 a.u.
   NGXF,Y,Z  is equivalent  to a cutoff of  26.69, 26.69, 25.21 a.u.

 SYSTEM =  SQS-NiFe                                
 POSCAR =  POSCAR                                  

 Startparameter for this run:
   NWRITE =      2    write-flag & timer
   PREC   = accura    normal or accurate (medium, high low for compatibility)
   ISTART =      1    job   : 0-new  1-cont  2-samecut
   ICHARG =      1    charge: 1-file 2-atom 10-const
   ISPIN  =      2    spin polarized calculation?
   LNONCOLLINEAR =      F non collinear calculations
   LSORBIT =      F    spin-orbit coupling
   INIWAV =      1    electr: 0-lowe 1-rand  2-diag
   LASPH  =      F    aspherical Exc in radial PAW
   METAGGA=      F    non-selfconsistent MetaGGA calc.

 Electronic Relaxation 1
   ENCUT  =  520.0 eV  38.22 Ry    6.18 a.u.  18.53 18.53 39.24*2*pi/ulx,y,z
   ENINI  =  520.0     initial cutoff
   ENAUG  =  605.4 eV  augmentation charge cutoff
   NELM   =    200;   NELMIN=  2; NELMDL=  0     # of ELM steps 
   EDIFF  = 0.1E-04   stopping-criterion for ELM
   LREAL  =      T    real-space projection
   NLSPLINE    = F    spline interpolate recip. space projectors
   LCOMPAT=      F    compatible to vasp.4.4
   GGA_COMPAT  = T    GGA compatible to vasp.4.4-vasp.4.6
   LMAXPAW     = -100 max onsite density
   LMAXMIX     =    2 max onsite mixed and CHGCAR
   VOSKOWN=      0    Vosko Wilk Nusair interpolation
   ROPT   =   -0.00025  -0.00025
 Ionic relaxation
   EDIFFG = -.5E-01   stopping-criterion for IOM
   NSW    =     99    number of steps for IOM
   NBLOCK =      1;   KBLOCK =     99    inner block; outer block 
   IBRION =      2    ionic relax: 0-MD 1-quasi-New 2-CG
   NFREE  =      1    steps in history (QN), initial steepest desc. (CG)
   ISIF   =      2    stress and relaxation
   IWAVPR =     11    prediction:  0-non 1-charg 2-wave 3-comb
   ISYM   =      0    0-nonsym 1-usesym 2-fastsym
   LCORR  =      T    Harris-Foulkes like correction to forces

   POTIM  = 0.5000    time-step for ionic-motion
   TEIN   =    0.0    initial temperature
   TEBEG  =    0.0;   TEEND  =   0.0 temperature during run
   SMASS  =  -3.00    Nose mass-parameter (am)
   estimated Nose-frequenzy (Omega)   =  0.10E-29 period in steps =****** mass=  -0.227E-26a.u.
   SCALEE = 1.0000    scale energy and forces
   NPACO  =    256;   APACO  = 16.0  distance and # of slots for P.C.
   PSTRESS=    0.0 pullay stress

  Mass of Ions in am
   POMASS =  58.69 16.00
  Ionic Valenz
   ZVAL   =  10.00  6.00
  Atomic Wigner-Seitz radii
   RWIGS  =  -1.00 -1.00
  virtual crystal weights 
   VCA    =   1.00  1.00
   NELECT =     664.0000    total number of electrons
   NUPDOWN=      -1.0000    fix difference up-down

 DOS related values:
   EMIN   =  10.00;   EMAX   =-10.00  energy-range for DOS
   EFERMI =   0.00
   ISMEAR =     1;   SIGMA  =   0.20  broadening in eV -4-tet -1-fermi 0-gaus

 Electronic relaxation 2 (details)
   IALGO  =     68    algorithm
   LDIAG  =      T    sub-space diagonalisation (order eigenvalues)
   LSUBROT=      F    optimize rotation matrix (better conditioning)
   TURBO    =      0    0=normal 1=particle mesh
   IRESTART =      0    0=no restart 2=restart with 2 vectors
   NREBOOT  =      0    no. of reboots
   NMIN     =      0    reboot dimension
   EREF     =   0.00    reference energy to select bands
   IMIX   =      4    mixing-type and parameters
     AMIX     =   0.40;   BMIX     =  1.00
     AMIX_MAG =   1.60;   BMIX_MAG =  1.00
     AMIN     =   0.10
     WC   =   100.;   INIMIX=   1;  MIXPRE=   1;  MAXMIX= -45

 Intra band minimization:
   WEIMIN = 0.0010     energy-eigenvalue tresh-hold
   EBREAK =  0.58E-08  absolut break condition
   DEPER  =   0.30     relativ break condition  

   TIME   =   0.40     timestep for ELM

  volume/ion in A,a.u.               =      26.70       180.19
  Fermi-wavevector in a.u.,A,eV,Ry     =   1.170703  2.212308 18.647406  1.370546
  Thomas-Fermi vector in A             =   2.307158
 
 Write flags
   LWAVE        =      T    write WAVECAR
   LDOWNSAMPLE  =      F    k-point downsampling of WAVECAR
   LCHARG       =      T    write CHGCAR
   LVTOT        =      F    write LOCPOT, total local potential
   LVHAR        =      F    write LOCPOT, Hartree potential only
   LELF         =      F    write electronic localiz. function (ELF)
   LORBIT       =     10    0 simple, 1 ext, 2 COOP (PROOUT), +10 PAW based schemes


 Dipole corrections
   LMONO  =      F    monopole corrections only (constant potential shift)
   LDIPOL =      T    correct potential (dipole corrections)
   IDIPOL =      3    1-x, 2-y, 3-z, 4-all directions 
   EPSILON=  1.0000000 bulk dielectric constant

 Exchange correlation treatment:
   GGA     =    --    GGA type
   LEXCH   =     8    internal setting for exchange type
   VOSKOWN=      0    Vosko Wilk Nusair interpolation
   LHFCALC =     F    Hartree Fock is set to
   LHFONE  =     F    Hartree Fock one center treatment
   AEXX    =    0.0000 exact exchange contribution

 Linear response parameters
   LEPSILON=     F    determine dielectric tensor
   LRPA    =     F    only Hartree local field effects (RPA)
   LNABLA  =     F    use nabla operator in PAW spheres
   LVEL    =     F    velocity operator in full k-point grid
   LINTERFAST=   F  fast interpolation
   KINTER  =     0    interpolate to denser k-point grid
   CSHIFT  =0.1000    complex shift for real part using Kramers Kronig
   OMEGAMAX=  -1.0    maximum frequency
   DEG_THRESHOLD= 0.2000000E-02 threshold for treating states as degnerate
   RTIME   =   -0.100 relaxation time in fs
  (WPLASMAI=    0.000 imaginary part of plasma frequency in eV, 0.658/RTIME)
   DFIELD  = 0.0000000 0.0000000 0.0000000 field for delta impulse in time
 
 Orbital magnetization related:
   ORBITALMAG=     F  switch on orbital magnetization
   LCHIMAG   =     F  perturbation theory with respect to B field
   DQ        =  0.001000  dq finite difference perturbation B field
   LLRAUG    =     F  two centre corrections for induced B field



--------------------------------------------------------------------------------------------------------


 conjugate gradient relaxation of ions
   using selective dynamics as specified on POSCAR
 charge density and potential will be updated during run
 spin polarized calculation
 RMM-DIIS sequential band-by-band and
  variant of blocked Davidson during initial phase
 perform sub-space diagonalisation
    before iterative eigenvector-optimisation
 modified Broyden-mixing scheme, WC =      100.0
 initial mixing is a Kerker type mixing with AMIX =  0.4000 and BMIX =      1.0000
 Hartree-type preconditioning will be used
 using additional bands          100
 real space projection scheme for non local part
 use partial core corrections
 calculate Harris-corrections to forces 
   (improved forces if not selfconsistent)
 use gradient corrections 
 use of overlap-Matrix (Vanderbilt PP)
 Methfessel and Paxton  Order N= 1 SIGMA  =   0.20


--------------------------------------------------------------------------------------------------------


  energy-cutoff  :      520.00
  volume of cell :     1815.73
      direct lattice vectors                 reciprocal lattice vectors
     9.967380000  0.000000000  0.000000000     0.100327268  0.057923975  0.000000000
    -4.983690000  8.632004290  0.000000000     0.000000000  0.115847950  0.000000000
     0.000000000  0.000000000 21.103750000     0.000000000  0.000000000  0.047384943

  length of vectors
     9.967380000  9.967380001 21.103750000     0.115847950  0.115847950  0.047384943


 
 old parameters found on file WAVECAR:
  energy-cutoff  :      520.00
  volume of cell :     1815.73
      direct lattice vectors                 reciprocal lattice vectors
     9.967380000  0.000000000  0.000000000     0.100327268  0.057923975  0.000000000
    -4.983690000  8.632004290  0.000000000     0.000000000  0.115847950  0.000000000
     0.000000000  0.000000000 21.103750000     0.000000000  0.000000000  0.047384943

  length of vectors

 
 k-points in units of 2pi/SCALE and weight: read from INCAR                         
   0.00000000  0.00000000  0.00000000       0.111
   0.03344242  0.01930799  0.00000000       0.222
   0.00000000  0.03861598  0.00000000       0.222
   0.03344242  0.05792397  0.00000000       0.222
  -0.03344242  0.01930799  0.00000000       0.222
 
 k-points in reciprocal lattice and weights: read from INCAR                         
   0.00000000  0.00000000  0.00000000       0.111
   0.33333333  0.00000000  0.00000000       0.222
   0.00000000  0.33333333  0.00000000       0.222
   0.33333333  0.33333333  0.00000000       0.222
  -0.33333333  0.33333333  0.00000000       0.222
 
 position of ions in fractional coordinates (direct lattice) 
   0.11283300  0.22566700  0.09477000
   0.11100588  0.22752325  0.38257153
   0.19616700  0.14233300  0.19117800
   0.02994861  0.05922657  0.28476749
   0.36283300  0.22566700  0.09477000
   0.36649392  0.22737091  0.38260313
   0.44616700  0.14233300  0.19117800
   0.27920438  0.05917026  0.28477124
   0.61283300  0.22566700  0.09477000
   0.61084933  0.22740353  0.38260204
   0.69616700  0.14233300  0.19117800
   0.52998787  0.05916529  0.28479691
   0.86283300  0.22566700  0.09477000
   0.86667149  0.22753035  0.38257195
   0.94616700  0.14233300  0.19117800
   0.77924882  0.05921662  0.28478858
   0.11283300  0.47566700  0.09477000
   0.11102154  0.47196250  0.38258908
   0.19616700  0.39233300  0.19117800
   0.02954462  0.30901431  0.28638585
   0.36283300  0.47566700  0.09477000
   0.36274074  0.47551090  0.37679990
   0.44616700  0.39233300  0.19117800
   0.27926766  0.30846047  0.28476500
   0.61283300  0.47566700  0.09477000
   0.61084938  0.47174406  0.38263811
   0.69616700  0.39233300  0.19117800
   0.52943940  0.30889096  0.28639515
   0.86283300  0.47566700  0.09477000
   0.86280817  0.47555898  0.37680205
   0.94616700  0.39233300  0.19117800
   0.77922810  0.30845014  0.28478111
   0.11283300  0.72566700  0.09477000
   0.11094979  0.72749862  0.38257167
   0.19616700  0.64233300  0.19117800
   0.02994926  0.55921252  0.28477286
   0.36283300  0.72566700  0.09477000
   0.36655162  0.72749432  0.38261015
   0.44616700  0.64233300  0.19117800
   0.27927722  0.55924557  0.28477864
   0.61283300  0.72566700  0.09477000
   0.61082375  0.72741769  0.38261286
   0.69616700  0.64233300  0.19117800
   0.52997816  0.55916548  0.28479746
   0.86283300  0.72566700  0.09477000
   0.86654934  0.72745592  0.38256771
   0.94616700  0.64233300  0.19117800
   0.77918148  0.55914618  0.28478998
   0.11283300  0.97566700  0.09477000
   0.11094898  0.97197579  0.38259825
   0.19616700  0.89233300  0.19117800
   0.02946510  0.80897588  0.28639259
   0.36283300  0.97566700  0.09477000
   0.36272353  0.97551895  0.37679481
   0.44616700  0.89233300  0.19117800
   0.27923096  0.80845972  0.28476617
   0.61283300  0.97566700  0.09477000
   0.61096346  0.97184273  0.38263925
   0.69616700  0.89233300  0.19117800
   0.52947533  0.80895076  0.28639673
   0.86283300  0.97566700  0.09477000
   0.86282512  0.97557201  0.37679818
   0.94616700  0.89233300  0.19117800
   0.77918819  0.80844174  0.28478294
   0.19610732  0.14231243  0.43455243
   0.69615135  0.64226023  0.43453844
   0.19613311  0.64234496  0.43453670
   0.69627549  0.14235413  0.43452452
 
 position of ions in cartesian coordinates  (Angst):
  -0.00000498  1.94795851  2.00000239
  -0.02746750  1.96398163  8.07369382
   1.24592748  1.22861907  4.03457272
   0.00334231  0.51124397  6.00966200
   2.49184002  1.94795851  2.00000239
   2.51983807  1.96266663  8.07436086
   3.73777248  1.22861907  4.03457272
   2.48804997  0.51075790  6.00974107
   4.98368502  1.94795851  2.00000239
   4.95525865  1.96294825  8.07433790
   6.22961748  1.22861907  4.03457272
   4.98772904  0.51071500  6.01028272
   7.47553002  1.94795851  2.00000239
   7.50450341  1.96404292  8.07370278
   8.72146248  1.22861907  4.03457272
   7.47195187  0.51115812  6.01010694
  -1.24592748  4.10595958  2.00000239
  -1.24552093  4.07398231  8.07406427
   0.00000498  3.38662014  4.03457272
  -1.24554911  2.66741285  6.04381529
   1.24591752  4.10595958  2.00000239
   1.24577588  4.10461216  7.95189081
   2.49184998  3.38662014  4.03457272
   1.24629549  2.66263213  6.00960927
   3.73776252  4.10595958  2.00000239
   3.73754175  4.07209677  8.07509892
   4.98369498  3.38662014  4.03457272
   3.73770689  2.66634807  6.04401169
   6.22960752  4.10595958  2.00000239
   6.22989833  4.10502718  7.95193620
   7.47553998  3.38662014  4.03457272
   6.22964274  2.66254293  6.00994929
  -2.49184998  6.26396066  2.00000239
  -2.51974892  6.27977119  8.07369683
  -1.24591752  5.54462121  4.03457272
  -2.48842616  4.82712485  6.00977525
  -0.00000498  6.26396066  2.00000239
   0.02795313  6.27973411  8.07450891
   1.24592748  5.54462121  4.03457272
  -0.00344436  4.82741015  6.00989717
   2.49184002  6.26396066  2.00000239
   2.46308813  6.27907258  8.07456618
   3.73777248  5.54462121  4.03457272
   2.49578632  4.82671884  6.01029433
   4.98368502  6.26396066  2.00000239
   5.01181173  6.27940266  8.07361335
   6.22961748  5.54462121  4.03457272
   4.97978673  4.82655220  6.01013648
  -3.73777248  8.42196173  2.00000239
  -3.73815542  8.39009919  8.07425784
  -2.49184002  7.70262228  4.03457272
  -3.73799511  6.98308323  6.04395758
  -1.24592748  8.42196173  2.00000239
  -1.24628081  8.42068377  7.95178348
   0.00000498  7.70262228  4.03457272
  -1.24591158  6.97862776  6.00963409
   1.24591752  8.42196173  2.00000239
   1.24634212  8.38895059  8.07512303
   2.49184998  7.70262228  4.03457272
   1.24592197  6.98286644  6.04404504
   3.73776252  8.42196173  2.00000239
   3.73815739  8.42114176  7.95185465
   4.98369498  7.70262228  4.03457272
   3.73744176  6.97847261  6.00998801
   1.24543520  1.22844149  9.17068586
   3.73797915  5.54399310  9.17039067
  -1.24631492  5.54472441  9.17035396
   6.23059353  1.22880150  9.17009685
 


--------------------------------------------------------------------------------------------------------


 k-point  1 :   0.0000 0.0000 0.0000  plane waves:   48949
 k-point  2 :   0.3333 0.0000 0.0000  plane waves:   48884
 k-point  3 :   0.0000 0.3333 0.0000  plane waves:   48884
 k-point  4 :   0.3333 0.3333 0.0000  plane waves:   48804
 k-point  5 :  -0.3333 0.3333 0.0000  plane waves:   48884

 maximum and minimum number of plane-waves per node :      2058     2018

 maximum number of plane-waves:     48949
 maximum index in each direction: 
   IXMAX=   18   IYMAX=   18   IZMAX=   39
   IXMIN=  -18   IYMIN=  -18   IZMIN=  -39


 real space projection operators:
  total allocation   :      63055.47 KBytes
  max/ min on nodes  :       3199.19       2317.77


 parallel 3D FFT for wavefunctions:
    minimum data exchange during FFTs selected (reduces bandwidth)
 parallel 3D FFT for charge:
    minimum data exchange during FFTs selected (reduces bandwidth)


 total amount of memory used by VASP MPI-rank0   113815. kBytes
=======================================================================

   base      :      30000. kBytes
   nonlr-proj:      12205. kBytes
   fftplans  :       6402. kBytes
   grid      :      16455. kBytes
   one-center:         93. kBytes
   wavefun   :      48660. kBytes
 
     INWAV:  cpu time   11.3466: real time   11.5732
 Broyden mixing: mesh for mixing (old mesh)
   NGX = 37   NGY = 37   NGZ = 79
  (NGX  =160   NGY  =160   NGZ  =320)
  gives a total of 108151 points

 initial charge density was supplied:
 number of electron     664.0000052 magnetization      43.1603973
 keeping initial charge density in first step


--------------------------------------------------------------------------------------------------------


 Maximum index for non-local projection operator          709
 Maximum index for augmentation-charges         1178 (set IRDMAX)


--------------------------------------------------------------------------------------------------------


 First call to EWALD:  gamma=   0.145
 Maximum number of real-space cells 4x 4x 2
 Maximum number of reciprocal cells 2x 2x 4

    FEWALD:  cpu time    0.0034: real time    0.0033


--------------------------------------- Iteration      1(   1)  ---------------------------------------


    POTLOK:  cpu time    0.4127: real time    0.4198
    SETDIJ:  cpu time    0.0234: real time    0.0233
     EDDAV:  cpu time   43.0037: real time   43.0669
       DOS:  cpu time    0.0089: real time    0.0089
    CHARGE:  cpu time    1.3846: real time    1.3853
    MIXING:  cpu time    0.0060: real time    0.0061
    --------------------------------------------
      LOOP:  cpu time   44.8394: real time   44.9104

 eigenvalue-minimisations  :  9378
 total energy-change (2. order) :-0.3445962E+03  (-0.1555779E+03)
 number of electron     664.0000052 magnetization      42.9496634
 augmentation part      399.1898347 magnetization      40.5695248

 DIPCOR: dipole corrections for dipol
 direction  3 min pos   245,
 dipolmoment           0.000000      0.000000      0.319898 electrons x Angstroem
 Tr[quadrupol]    -10847.895757

 energy correction for charged system         0.000000 eV
 dipol+quadrupol energy correction           -0.005099 eV
 added-field ion interaction          7.741792 eV  (added to PSCEN)


 Broyden mixing:
  rms(total) = 0.68310E+00    rms(broyden)= 0.68305E+00
  rms(prec ) = 0.69650E+00
  weight for this iteration     100.00

 Free energy of the ion-electron system (eV)
  ---------------------------------------------------
  alpha Z        PSCENC =      1235.21862969
  Ewald energy   TEWEN  =    247954.47992358
  -Hartree energ DENC   =   -316583.80901265
  -exchange      EXHF   =         0.00000000
  -V(xc)+E(xc)   XCENC  =      2070.14007246
  PAW double counting   =     74340.38020935   -78735.24810323
  entropy T*S    EENTRO =        -0.08989582
  eigenvalues    EBANDS =     -1326.03880445
  atomic energy  EATOM  =     70700.37078785
  Solvation  Ediel_sol  =         0.00000000
  ---------------------------------------------------
  free energy    TOTEN  =      -344.59619323 eV

  energy without entropy =     -344.50629741  energy(sigma->0) =     -344.56622796


--------------------------------------------------------------------------------------------------------




--------------------------------------- Iteration      1(   2)  ---------------------------------------


    POTLOK:  cpu time    0.4125: real time    0.4225
    SETDIJ:  cpu time    0.0233: real time    0.0233
    EDDIAG:  cpu time    5.9960: real time    5.9986
  RMM-DIIS:  cpu time   20.8744: real time   20.8921
    ORTHCH:  cpu time    1.7079: real time    1.7083
       DOS:  cpu time    0.0098: real time    0.0098
    CHARGE:  cpu time    1.3507: real time    1.3510
    MIXING:  cpu time    0.0063: real time    0.0063
    --------------------------------------------
      LOOP:  cpu time   30.3808: real time   30.4119

 eigenvalue-minimisations  :  8720
 total energy-change (2. order) :-0.1633502E+02  (-0.1406914E+02)
 number of electron     664.0000045 magnetization      42.9644859
 augmentation part      395.2430154 magnetization      39.4170253

 DIPCOR: dipole corrections for dipol
 direction  3 min pos   243,
 dipolmoment           0.000000      0.000000      0.083482 electrons x Angstroem
 Tr[quadrupol]    -10847.761930

 energy correction for charged system         0.000000 eV
 dipol+quadrupol energy correction           -0.000347 eV
 added-field ion interaction          1.291669 eV  (added to PSCEN)


 Broyden mixing:
  rms(total) = 0.30288E+01    rms(broyden)= 0.30288E+01
  rms(prec ) = 0.39533E+01
  weight for this iteration     100.00

 eigenvalues of (default mixing * dielectric matrix)
  average eigenvalue GAMMA=   0.1032
  0.1032

 Free energy of the ion-electron system (eV)
  ---------------------------------------------------
  alpha Z        PSCENC =      1228.77325813
  Ewald energy   TEWEN  =    247954.47992358
  -Hartree energ DENC   =   -316621.21062018
  -exchange      EXHF   =         0.00000000
  -V(xc)+E(xc)   XCENC  =      2071.61557034
  PAW double counting   =     74829.54789367   -79254.81445615
  entropy T*S    EENTRO =         0.12405680
  eigenvalues    EBANDS =     -1269.81763013
  atomic energy  EATOM  =     70700.37078785
  Solvation  Ediel_sol  =         0.00000000
  ---------------------------------------------------
  free energy    TOTEN  =      -360.93121608 eV

  energy without entropy =     -361.05527288  energy(sigma->0) =     -360.97256835


--------------------------------------------------------------------------------------------------------




--------------------------------------- Iteration      1(   3)  ---------------------------------------


    POTLOK:  cpu time    0.4121: real time    0.4222
    SETDIJ:  cpu time    0.0231: real time    0.0231
    EDDIAG:  cpu time    6.0015: real time    6.0042
  RMM-DIIS:  cpu time   20.9010: real time   20.9199
    ORTHCH:  cpu time    1.7121: real time    1.7125
       DOS:  cpu time    0.0094: real time    0.0094
    CHARGE:  cpu time    1.3553: real time    1.3556
    MIXING:  cpu time    0.0063: real time    0.0063
    --------------------------------------------
      LOOP:  cpu time   30.4208: real time   30.4531

 eigenvalue-minimisations  :  8729
 total energy-change (2. order) :-0.1349961E+01  (-0.6092187E+00)
 number of electron     664.0000055 magnetization      42.9201897
 augmentation part      395.4289282 magnetization      40.3180173

 DIPCOR: dipole corrections for dipol
 direction  3 min pos   241,
 dipolmoment           0.000000      0.000000      0.607716 electrons x Angstroem
 Tr[quadrupol]    -10848.068437

 energy correction for charged system         0.000000 eV
 dipol+quadrupol energy correction           -0.018404 eV
 added-field ion interaction          4.098362 eV  (added to PSCEN)


 Broyden mixing:
  rms(total) = 0.37662E+01    rms(broyden)= 0.37660E+01
  rms(prec ) = 0.49576E+01
  weight for this iteration     100.00

 eigenvalues of (default mixing * dielectric matrix)
  average eigenvalue GAMMA=   0.1906
  0.3464  0.0349

 Free energy of the ion-electron system (eV)
  ---------------------------------------------------
  alpha Z        PSCENC =      1231.56189532
  Ewald energy   TEWEN  =    247954.47992358
  -Hartree energ DENC   =   -316622.59766689
  -exchange      EXHF   =         0.00000000
  -V(xc)+E(xc)   XCENC  =      2071.35868701
  PAW double counting   =     74824.88564708   -79247.31651166
  entropy T*S    EENTRO =        -0.07614889
  eigenvalues    EBANDS =     -1274.94779089
  atomic energy  EATOM  =     70700.37078785
  Solvation  Ediel_sol  =         0.00000000
  ---------------------------------------------------
  free energy    TOTEN  =      -362.28117749 eV

  energy without entropy =     -362.20502860  energy(sigma->0) =     -362.25579453


--------------------------------------------------------------------------------------------------------




--------------------------------------- Iteration      1(   4)  ---------------------------------------


    POTLOK:  cpu time    0.4144: real time    0.4244
    SETDIJ:  cpu time    0.0230: real time    0.0230
    EDDIAG:  cpu time    6.0102: real time    6.0129
  RMM-DIIS:  cpu time   21.0005: real time   21.0163
    ORTHCH:  cpu time    1.7124: real time    1.7128
       DOS:  cpu time    0.0093: real time    0.0093
    CHARGE:  cpu time    1.6268: real time    1.9027
    MIXING:  cpu time    0.0064: real time    0.0064
    --------------------------------------------
      LOOP:  cpu time   30.8030: real time   31.1078

 eigenvalue-minimisations  :  8783
 total energy-change (2. order) : 0.2898906E+01  (-0.1971121E+00)
 number of electron     664.0000061 magnetization      42.8912239
 augmentation part      396.6846015 magnetization      40.1395761

 DIPCOR: dipole corrections for dipol
 direction  3 min pos   235,
 dipolmoment           0.000000      0.000000      0.361329 electrons x Angstroem
 Tr[quadrupol]    -10847.610183

 energy correction for charged system         0.000000 eV
 dipol+quadrupol energy correction           -0.006506 eV
 added-field ion interaction         -7.024800 eV  (added to PSCEN)


 Broyden mixing:
  rms(total) = 0.18826E+01    rms(broyden)= 0.18825E+01
  rms(prec ) = 0.20757E+01
  weight for this iteration     100.00

 eigenvalues of (default mixing * dielectric matrix)
  average eigenvalue GAMMA=   0.2011
  0.4676  0.0988  0.0370

 Free energy of the ion-electron system (eV)
  ---------------------------------------------------
  alpha Z        PSCENC =      1220.45063065
  Ewald energy   TEWEN  =    247954.47992358
  -Hartree energ DENC   =   -316594.58089771
  -exchange      EXHF   =         0.00000000
  -V(xc)+E(xc)   XCENC  =      2070.11076159
  PAW double counting   =     74789.17082333   -79201.11222706
  entropy T*S    EENTRO =        -0.04447208
  eigenvalues    EBANDS =     -1298.22760161
  atomic energy  EATOM  =     70700.37078785
  Solvation  Ediel_sol  =         0.00000000
  ---------------------------------------------------
  free energy    TOTEN  =      -359.38227146 eV

  energy without entropy =     -359.33779939  energy(sigma->0) =     -359.36744744


--------------------------------------------------------------------------------------------------------




--------------------------------------- Iteration      1(   5)  ---------------------------------------


    POTLOK:  cpu time    0.4213: real time    0.4219
    SETDIJ:  cpu time    0.0230: real time    0.0230
    EDDIAG:  cpu time    6.0084: real time    6.0098
  RMM-DIIS:  cpu time   20.9291: real time   20.9406
    ORTHCH:  cpu time    1.7098: real time    1.7101
       DOS:  cpu time    0.0092: real time    0.0092
    CHARGE:  cpu time    1.3355: real time    1.3365
    MIXING:  cpu time    0.0065: real time    0.0065
    --------------------------------------------
      LOOP:  cpu time   30.4428: real time   30.4577

 eigenvalue-minimisations  :  8741
 total energy-change (2. order) : 0.1069854E+01  (-0.8168673E-01)
 number of electron     664.0000050 magnetization      42.8633633
 augmentation part      397.3177463 magnetization      39.9926467

 DIPCOR: dipole corrections for dipol
 direction  3 min pos   232,
 dipolmoment           0.000000      0.000000      0.359534 electrons x Angstroem
 Tr[quadrupol]    -10846.966818

 energy correction for charged system         0.000000 eV
 dipol+quadrupol energy correction           -0.006441 eV
 added-field ion interaction        -11.697178 eV  (added to PSCEN)


 Broyden mixing:
  rms(total) = 0.57313E+00    rms(broyden)= 0.57305E+00
  rms(prec ) = 0.68078E+00
  weight for this iteration     100.00

 eigenvalues of (default mixing * dielectric matrix)
  average eigenvalue GAMMA=   0.2230
  0.4474  0.3051  0.0362  0.1031

 Free energy of the ion-electron system (eV)
  ---------------------------------------------------
  alpha Z        PSCENC =      1215.77831705
  Ewald energy   TEWEN  =    247954.47992358
  -Hartree energ DENC   =   -316563.70058318
  -exchange      EXHF   =         0.00000000
  -V(xc)+E(xc)   XCENC  =      2069.67062972
  PAW double counting   =     74759.81142999   -79166.90200129
  entropy T*S    EENTRO =        -0.15116079
  eigenvalues    EBANDS =     -1327.66976010
  atomic energy  EATOM  =     70700.37078785
  Solvation  Ediel_sol  =         0.00000000
  ---------------------------------------------------
  free energy    TOTEN  =      -358.31241717 eV

  energy without entropy =     -358.16125638  energy(sigma->0) =     -358.26203024


--------------------------------------------------------------------------------------------------------




--------------------------------------- Iteration      1(   6)  ---------------------------------------


    POTLOK:  cpu time    0.4140: real time    0.4246
    SETDIJ:  cpu time    0.0230: real time    0.0230
    EDDIAG:  cpu time    6.0093: real time    6.0108
  RMM-DIIS:  cpu time   20.8960: real time   20.9081
    ORTHCH:  cpu time    1.7129: real time    1.7133
       DOS:  cpu time    0.0091: real time    0.0091
    CHARGE:  cpu time    1.3348: real time    1.3358
    MIXING:  cpu time    0.0068: real time    0.0067
    --------------------------------------------
      LOOP:  cpu time   30.4059: real time   30.4315

 eigenvalue-minimisations  :  8714
 total energy-change (2. order) :-0.1089422E+00  (-0.2826658E-01)
 number of electron     664.0000055 magnetization      42.8523378
 augmentation part      397.2992989 magnetization      39.9330011

 DIPCOR: dipole corrections for dipol
 direction  3 min pos   236,
 dipolmoment           0.000000      0.000000      0.339391 electrons x Angstroem
 Tr[quadrupol]    -10847.539971

 energy correction for charged system         0.000000 eV
 dipol+quadrupol energy correction           -0.005740 eV
 added-field ion interaction         -5.117104 eV  (added to PSCEN)


 Broyden mixing:
  rms(total) = 0.83814E+00    rms(broyden)= 0.83812E+00
  rms(prec ) = 0.95130E+00
  weight for this iteration     100.00

 eigenvalues of (default mixing * dielectric matrix)
  average eigenvalue GAMMA=   0.2436
  0.4863  0.4863  0.0363  0.1282  0.0807

 Free energy of the ion-electron system (eV)
  ---------------------------------------------------
  alpha Z        PSCENC =      1222.35909311
  Ewald energy   TEWEN  =    247954.47992358
  -Hartree energ DENC   =   -316578.32775585
  -exchange      EXHF   =         0.00000000
  -V(xc)+E(xc)   XCENC  =      2069.60422962
  PAW double counting   =     74728.51644406   -79134.16389950
  entropy T*S    EENTRO =        -0.05234347
  eigenvalues    EBANDS =     -1321.20783875
  atomic energy  EATOM  =     70700.37078785
  Solvation  Ediel_sol  =         0.00000000
  ---------------------------------------------------
  free energy    TOTEN  =      -358.42135934 eV

  energy without entropy =     -358.36901587  energy(sigma->0) =     -358.40391152


--------------------------------------------------------------------------------------------------------




--------------------------------------- Iteration      1(   7)  ---------------------------------------


    POTLOK:  cpu time    0.4213: real time    0.4219
    SETDIJ:  cpu time    0.0230: real time    0.0230
    EDDIAG:  cpu time    6.0055: real time    6.0067
  RMM-DIIS:  cpu time   20.9153: real time   20.9277
    ORTHCH:  cpu time    1.7125: real time    1.7136
       DOS:  cpu time    0.0094: real time    0.0094
    CHARGE:  cpu time    1.3356: real time    1.3358
    MIXING:  cpu time    0.0069: real time    0.0069
    --------------------------------------------
      LOOP:  cpu time   30.4296: real time   30.4450

 eigenvalue-minimisations  :  8727
 total energy-change (2. order) : 0.1324643E+00  (-0.9401100E-02)
 number of electron     664.0000053 magnetization      42.8555591
 augmentation part      397.1893361 magnetization      40.0023669

 DIPCOR: dipole corrections for dipol
 direction  3 min pos   240,
 dipolmoment           0.000000      0.000000      0.354788 electrons x Angstroem
 Tr[quadrupol]    -10847.644005

 energy correction for charged system         0.000000 eV
 dipol+quadrupol energy correction           -0.006272 eV
 added-field ion interaction          0.844269 eV  (added to PSCEN)


 Broyden mixing:
  rms(total) = 0.49621E+00    rms(broyden)= 0.49620E+00
  rms(prec ) = 0.60188E+00
  weight for this iteration     100.00

 eigenvalues of (default mixing * dielectric matrix)
  average eigenvalue GAMMA=   0.2193
  0.4662  0.4662  0.1659  0.0363  0.0907  0.0907

 Free energy of the ion-electron system (eV)
  ---------------------------------------------------
  alpha Z        PSCENC =      1228.31993308
  Ewald energy   TEWEN  =    247954.47992358
  -Hartree energ DENC   =   -316580.16603372
  -exchange      EXHF   =         0.00000000
  -V(xc)+E(xc)   XCENC  =      2069.86258535
  PAW double counting   =     74687.99345717   -79093.19453981
  entropy T*S    EENTRO =        -0.08047288
  eigenvalues    EBANDS =     -1325.87453570
  atomic energy  EATOM  =     70700.37078785
  Solvation  Ediel_sol  =         0.00000000
  ---------------------------------------------------
  free energy    TOTEN  =      -358.28889508 eV

  energy without entropy =     -358.20842220  energy(sigma->0) =     -358.26207079


--------------------------------------------------------------------------------------------------------




--------------------------------------- Iteration      1(   8)  ---------------------------------------


    POTLOK:  cpu time    0.4110: real time    0.4216
    SETDIJ:  cpu time    0.0233: real time    0.0233
    EDDIAG:  cpu time    5.9965: real time    5.9979
  RMM-DIIS:  cpu time   21.3537: real time   21.3663
    ORTHCH:  cpu time    1.7102: real time    1.7113
       DOS:  cpu time    0.0094: real time    0.0094
    CHARGE:  cpu time    1.3402: real time    1.3404
    MIXING:  cpu time    0.0072: real time    0.0072
    --------------------------------------------
      LOOP:  cpu time   30.8514: real time   30.8773

 eigenvalue-minimisations  :  8944
 total energy-change (2. order) :-0.1555398E-03  (-0.1324448E-02)
 number of electron     664.0000053 magnetization      42.8639412
 augmentation part      397.1848322 magnetization      40.0487357

 DIPCOR: dipole corrections for dipol
 direction  3 min pos   244,
 dipolmoment           0.000000      0.000000      0.357999 electrons x Angstroem
 Tr[quadrupol]    -10847.841194

 energy correction for charged system         0.000000 eV
 dipol+quadrupol energy correction           -0.006387 eV
 added-field ion interaction          7.101488 eV  (added to PSCEN)


 Broyden mixing:
  rms(total) = 0.49766E+00    rms(broyden)= 0.49766E+00
  rms(prec ) = 0.61903E+00
  weight for this iteration     100.00

 eigenvalues of (default mixing * dielectric matrix)
  average eigenvalue GAMMA=   0.2202
  0.4458  0.4458  0.2744  0.0363  0.1283  0.1283  0.0825

 Free energy of the ion-electron system (eV)
  ---------------------------------------------------
  alpha Z        PSCENC =      1234.57703804
  Ewald energy   TEWEN  =    247954.47992358
  -Hartree energ DENC   =   -316580.82173928
  -exchange      EXHF   =         0.00000000
  -V(xc)+E(xc)   XCENC  =      2069.90527407
  PAW double counting   =     74674.69233815   -79079.55920534
  entropy T*S    EENTRO =        -0.08418835
  eigenvalues    EBANDS =     -1331.84927933
  atomic energy  EATOM  =     70700.37078785
  Solvation  Ediel_sol  =         0.00000000
  ---------------------------------------------------
  free energy    TOTEN  =      -358.28905062 eV

  energy without entropy =     -358.20486227  energy(sigma->0) =     -358.26098784


--------------------------------------------------------------------------------------------------------




--------------------------------------- Iteration      1(   9)  ---------------------------------------


    POTLOK:  cpu time    0.4144: real time    0.4259
    SETDIJ:  cpu time    0.0232: real time    0.0232
    EDDIAG:  cpu time    6.0082: real time    6.0102
  RMM-DIIS:  cpu time   20.9051: real time   20.9213
    ORTHCH:  cpu time    1.7095: real time    1.7110
       DOS:  cpu time    0.0097: real time    0.0097
    CHARGE:  cpu time    1.3395: real time    1.3397
    MIXING:  cpu time    0.0073: real time    0.0073
    --------------------------------------------
      LOOP:  cpu time   30.4168: real time   30.4483

 eigenvalue-minimisations  :  8725
 total energy-change (2. order) : 0.7370843E-02  (-0.7220321E-03)
 number of electron     664.0000053 magnetization      42.8704129
 augmentation part      397.2036861 magnetization      40.0949574

 DIPCOR: dipole corrections for dipol
 direction  3 min pos   246,
 dipolmoment           0.000000      0.000000      0.359802 electrons x Angstroem
 Tr[quadrupol]    -10847.957563

 energy correction for charged system         0.000000 eV
 dipol+quadrupol energy correction           -0.006451 eV
 added-field ion interaction         10.277755 eV  (added to PSCEN)


 Broyden mixing:
  rms(total) = 0.48767E+00    rms(broyden)= 0.48767E+00
  rms(prec ) = 0.61033E+00
  weight for this iteration     100.00

 eigenvalues of (default mixing * dielectric matrix)
  average eigenvalue GAMMA=   0.2248
  0.4450  0.4450  0.2800  0.2800  0.0363  0.1380  0.0869  0.0869

 Free energy of the ion-electron system (eV)
  ---------------------------------------------------
  alpha Z        PSCENC =      1237.75324098
  Ewald energy   TEWEN  =    247954.47992358
  -Hartree energ DENC   =   -316582.29439009
  -exchange      EXHF   =         0.00000000
  -V(xc)+E(xc)   XCENC  =      2069.99553514
  PAW double counting   =     74635.87606644   -79039.78004687
  entropy T*S    EENTRO =        -0.08293280
  eigenvalues    EBANDS =     -1334.59986401
  atomic energy  EATOM  =     70700.37078785
  Solvation  Ediel_sol  =         0.00000000
  ---------------------------------------------------
  free energy    TOTEN  =      -358.28167978 eV

  energy without entropy =     -358.19874698  energy(sigma->0) =     -358.25403551


--------------------------------------------------------------------------------------------------------




--------------------------------------- Iteration      1(  10)  ---------------------------------------


    POTLOK:  cpu time    0.4131: real time    0.4242
    SETDIJ:  cpu time    0.0230: real time    0.0230
    EDDIAG:  cpu time    6.0068: real time    6.0090
  RMM-DIIS:  cpu time   20.8906: real time   20.9080
    ORTHCH:  cpu time    1.7135: real time    1.7139
       DOS:  cpu time    0.0098: real time    0.0098
    CHARGE:  cpu time    1.3438: real time    1.3440
    MIXING:  cpu time    0.0074: real time    0.0074
    --------------------------------------------
      LOOP:  cpu time   30.4081: real time   30.4393

 eigenvalue-minimisations  :  8721
 total energy-change (2. order) : 0.1609897E-01  (-0.5903001E-03)
 number of electron     664.0000052 magnetization      42.9020448
 augmentation part      397.2192259 magnetization      40.1481076

 DIPCOR: dipole corrections for dipol
 direction  3 min pos   245,
 dipolmoment           0.000000      0.000000      0.359029 electrons x Angstroem
 Tr[quadrupol]    -10847.912726

 energy correction for charged system         0.000000 eV
 dipol+quadrupol energy correction           -0.006423 eV
 added-field ion interaction          8.688797 eV  (added to PSCEN)


 Broyden mixing:
  rms(total) = 0.44670E+00    rms(broyden)= 0.44670E+00
  rms(prec ) = 0.56307E+00
  weight for this iteration     100.00

 eigenvalues of (default mixing * dielectric matrix)
  average eigenvalue GAMMA=   0.3941
  1.0270  1.0270  0.5238  0.5238  0.0363  0.1303  0.1139  0.0870  0.0780

 Free energy of the ion-electron system (eV)
  ---------------------------------------------------
  alpha Z        PSCENC =      1236.16431093
  Ewald energy   TEWEN  =    247954.47992358
  -Hartree energ DENC   =   -316582.99155288
  -exchange      EXHF   =         0.00000000
  -V(xc)+E(xc)   XCENC  =      2070.04735793
  PAW double counting   =     74611.31120078   -79014.60152975
  entropy T*S    EENTRO =        -0.08437762
  eigenvalues    EBANDS =     -1332.96170163
  atomic energy  EATOM  =     70700.37078785
  Solvation  Ediel_sol  =         0.00000000
  ---------------------------------------------------
  free energy    TOTEN  =      -358.26558081 eV

  energy without entropy =     -358.18120319  energy(sigma->0) =     -358.23745493


--------------------------------------------------------------------------------------------------------




--------------------------------------- Iteration      1(  11)  ---------------------------------------


    POTLOK:  cpu time    0.4116: real time    0.4223
    SETDIJ:  cpu time    0.0232: real time    0.0232
    EDDIAG:  cpu time    6.0078: real time    6.0095
  RMM-DIIS:  cpu time   20.8565: real time   20.8732
    ORTHCH:  cpu time    1.7085: real time    1.7089
       DOS:  cpu time    0.0095: real time    0.0095
    CHARGE:  cpu time    1.3369: real time    1.3372
    MIXING:  cpu time    0.0078: real time    0.0078
    --------------------------------------------
      LOOP:  cpu time   30.3617: real time   30.3916

 eigenvalue-minimisations  :  8697
 total energy-change (2. order) : 0.8918838E-01  (-0.2281608E-02)
 number of electron     664.0000052 magnetization      42.9178104
 augmentation part      397.2865149 magnetization      40.2370218

 DIPCOR: dipole corrections for dipol
 direction  3 min pos   244,
 dipolmoment           0.000000      0.000000      0.346264 electrons x Angstroem
 Tr[quadrupol]    -10847.912260

 energy correction for charged system         0.000000 eV
 dipol+quadrupol energy correction           -0.005975 eV
 added-field ion interaction          6.868704 eV  (added to PSCEN)


 Broyden mixing:
  rms(total) = 0.29761E+00    rms(broyden)= 0.29760E+00
  rms(prec ) = 0.36276E+00
  weight for this iteration     100.00

 eigenvalues of (default mixing * dielectric matrix)
  average eigenvalue GAMMA=   0.4050
  1.1811  1.1811  0.5586  0.5586  0.0363  0.1394  0.1159  0.1159  0.0865  0.0770

 Free energy of the ion-electron system (eV)
  ---------------------------------------------------
  alpha Z        PSCENC =      1234.34466600
  Ewald energy   TEWEN  =    247954.47992358
  -Hartree energ DENC   =   -316586.49196229
  -exchange      EXHF   =         0.00000000
  -V(xc)+E(xc)   XCENC  =      2070.19839073
  PAW double counting   =     74524.11370336   -78925.11381064
  entropy T*S    EENTRO =        -0.08944175
  eigenvalues    EBANDS =     -1329.98864927
  atomic energy  EATOM  =     70700.37078785
  Solvation  Ediel_sol  =         0.00000000
  ---------------------------------------------------
  free energy    TOTEN  =      -358.17639242 eV

  energy without entropy =     -358.08695067  energy(sigma->0) =     -358.14657851


--------------------------------------------------------------------------------------------------------




--------------------------------------- Iteration      1(  12)  ---------------------------------------


    POTLOK:  cpu time    0.4245: real time    0.4251
    SETDIJ:  cpu time    0.0230: real time    0.0230
    EDDIAG:  cpu time    6.0051: real time    6.0078
  RMM-DIIS:  cpu time   20.8284: real time   20.8408
    ORTHCH:  cpu time    1.7073: real time    1.7076
       DOS:  cpu time    0.0093: real time    0.0093
    CHARGE:  cpu time    1.3400: real time    1.3402
    MIXING:  cpu time    0.0091: real time    0.0091
    --------------------------------------------
      LOOP:  cpu time   30.3467: real time   30.3629

 eigenvalue-minimisations  :  8699
 total energy-change (2. order) : 0.8480973E-01  (-0.1340710E-02)
 number of electron     664.0000051 magnetization      42.9198585
 augmentation part      397.3243013 magnetization      40.2449048

 DIPCOR: dipole corrections for dipol
 direction  3 min pos   244,
 dipolmoment           0.000000      0.000000      0.333977 electrons x Angstroem
 Tr[quadrupol]    -10847.952085

 energy correction for charged system         0.000000 eV
 dipol+quadrupol energy correction           -0.005558 eV
 added-field ion interaction          6.624961 eV  (added to PSCEN)


 Broyden mixing:
  rms(total) = 0.14019E+00    rms(broyden)= 0.14018E+00
  rms(prec ) = 0.16115E+00
  weight for this iteration     100.00

 eigenvalues of (default mixing * dielectric matrix)
  average eigenvalue GAMMA=   0.3912
  1.2121  1.2121  0.5523  0.5523  0.2260  0.0363  0.1235  0.1235  0.1012  0.0868
  0.0770

 Free energy of the ion-electron system (eV)
  ---------------------------------------------------
  alpha Z        PSCENC =      1234.10133946
  Ewald energy   TEWEN  =    247954.47992358
  -Hartree energ DENC   =   -316588.86936289
  -exchange      EXHF   =         0.00000000
  -V(xc)+E(xc)   XCENC  =      2070.28207996
  PAW double counting   =     74479.89070082   -78879.66949359
  entropy T*S    EENTRO =        -0.08493811
  eigenvalues    EBANDS =     -1328.59261978
  atomic energy  EATOM  =     70700.37078785
  Solvation  Ediel_sol  =         0.00000000
  ---------------------------------------------------
  free energy    TOTEN  =      -358.09158270 eV

  energy without entropy =     -358.00664459  energy(sigma->0) =     -358.06327000


--------------------------------------------------------------------------------------------------------




--------------------------------------- Iteration      1(  13)  ---------------------------------------


    POTLOK:  cpu time    0.4122: real time    0.4255
    SETDIJ:  cpu time    0.0232: real time    0.0232
    EDDIAG:  cpu time    6.0115: real time    6.0141
  RMM-DIIS:  cpu time   20.8753: real time   20.8879
    ORTHCH:  cpu time    1.7227: real time    1.7229
       DOS:  cpu time    0.0093: real time    0.0094
    CHARGE:  cpu time    1.3378: real time    1.3380
    MIXING:  cpu time    0.0081: real time    0.0081
    --------------------------------------------
      LOOP:  cpu time   30.4001: real time   30.4292

 eigenvalue-minimisations  :  8731
 total energy-change (2. order) : 0.1725540E-01  (-0.4174951E-03)
 number of electron     664.0000051 magnetization      42.9214347
 augmentation part      397.3308270 magnetization      40.2411292

 DIPCOR: dipole corrections for dipol
 direction  3 min pos   247,
 dipolmoment           0.000000      0.000000      0.333594 electrons x Angstroem
 Tr[quadrupol]    -10848.109635

 energy correction for charged system         0.000000 eV
 dipol+quadrupol energy correction           -0.005545 eV
 added-field ion interaction         10.985002 eV  (added to PSCEN)


 Broyden mixing:
  rms(total) = 0.12916E+00    rms(broyden)= 0.12916E+00
  rms(prec ) = 0.14539E+00
  weight for this iteration     100.00

 eigenvalues of (default mixing * dielectric matrix)
  average eigenvalue GAMMA=   0.4365
  1.3510  1.3510  0.7014  0.7014  0.4711  0.0363  0.1373  0.1288  0.1138  0.0869
  0.0768  0.0823

 Free energy of the ion-electron system (eV)
  ---------------------------------------------------
  alpha Z        PSCENC =      1238.46139355
  Ewald energy   TEWEN  =    247954.47992358
  -Hartree energ DENC   =   -316589.83744745
  -exchange      EXHF   =         0.00000000
  -V(xc)+E(xc)   XCENC  =      2070.30510502
  PAW double counting   =     74470.22931065   -78869.70763516
  entropy T*S    EENTRO =        -0.08423057
  eigenvalues    EBANDS =     -1332.29153477
  atomic energy  EATOM  =     70700.37078785
  Solvation  Ediel_sol  =         0.00000000
  ---------------------------------------------------
  free energy    TOTEN  =      -358.07432730 eV

  energy without entropy =     -357.99009673  energy(sigma->0) =     -358.04625044


--------------------------------------------------------------------------------------------------------




--------------------------------------- Iteration      1(  14)  ---------------------------------------


    POTLOK:  cpu time    0.4144: real time    0.4269
    SETDIJ:  cpu time    0.0231: real time    0.0231
    EDDIAG:  cpu time    6.0077: real time    6.0109
  RMM-DIIS:  cpu time   20.8685: real time   20.8855
    ORTHCH:  cpu time    1.7146: real time    1.7149
       DOS:  cpu time    0.0096: real time    0.0096
    CHARGE:  cpu time    1.3398: real time    1.3400
    MIXING:  cpu time    0.0085: real time    0.0085
    --------------------------------------------
      LOOP:  cpu time   30.3870: real time   30.4193

 eigenvalue-minimisations  :  8725
 total energy-change (2. order) : 0.2746652E-01  (-0.3479237E-03)
 number of electron     664.0000051 magnetization      42.9205129
 augmentation part      397.3394799 magnetization      40.2331751

 DIPCOR: dipole corrections for dipol
 direction  3 min pos   245,
 dipolmoment           0.000000      0.000000      0.341730 electrons x Angstroem
 Tr[quadrupol]    -10848.073597

 energy correction for charged system         0.000000 eV
 dipol+quadrupol energy correction           -0.005819 eV
 added-field ion interaction          8.270154 eV  (added to PSCEN)


 Broyden mixing:
  rms(total) = 0.13128E+00    rms(broyden)= 0.13128E+00
  rms(prec ) = 0.16096E+00
  weight for this iteration     100.00

 eigenvalues of (default mixing * dielectric matrix)
  average eigenvalue GAMMA=   0.4310
  1.4202  1.4202  0.7342  0.7342  0.4714  0.0363  0.1730  0.1390  0.1151  0.1151
  0.0864  0.0813  0.0769

 Free energy of the ion-electron system (eV)
  ---------------------------------------------------
  alpha Z        PSCENC =      1235.74627159
  Ewald energy   TEWEN  =    247954.47992358
  -Hartree energ DENC   =   -316593.10662655
  -exchange      EXHF   =         0.00000000
  -V(xc)+E(xc)   XCENC  =      2070.36090515
  PAW double counting   =     74446.68002006   -78845.37786877
  entropy T*S    EENTRO =        -0.08659760
  eigenvalues    EBANDS =     -1327.11367610
  atomic energy  EATOM  =     70700.37078785
  Solvation  Ediel_sol  =         0.00000000
  ---------------------------------------------------
  free energy    TOTEN  =      -358.04686078 eV

  energy without entropy =     -357.96026317  energy(sigma->0) =     -358.01799491


--------------------------------------------------------------------------------------------------------




--------------------------------------- Iteration      1(  15)  ---------------------------------------


    POTLOK:  cpu time    0.4233: real time    0.4238
    SETDIJ:  cpu time    0.0231: real time    0.0231
    EDDIAG:  cpu time    6.0050: real time    6.0072
  RMM-DIIS:  cpu time   20.8457: real time   20.8570
    ORTHCH:  cpu time    1.7252: real time    1.7254
       DOS:  cpu time    0.0093: real time    0.0093
    CHARGE:  cpu time    1.3366: real time    1.3369
    MIXING:  cpu time    0.0086: real time    0.0086
    --------------------------------------------
      LOOP:  cpu time   30.3760: real time   30.3912

 eigenvalue-minimisations  :  8690
 total energy-change (2. order) : 0.8436050E-02  (-0.2683867E-03)
 number of electron     664.0000051 magnetization      42.9181391
 augmentation part      397.3454461 magnetization      40.2219694

 DIPCOR: dipole corrections for dipol
 direction  3 min pos   244,
 dipolmoment           0.000000      0.000000      0.342262 electrons x Angstroem
 Tr[quadrupol]    -10848.053595

 energy correction for charged system         0.000000 eV
 dipol+quadrupol energy correction           -0.005837 eV
 added-field ion interaction          6.789310 eV  (added to PSCEN)


 Broyden mixing:
  rms(total) = 0.12344E+00    rms(broyden)= 0.12344E+00
  rms(prec ) = 0.15285E+00
  weight for this iteration     100.00

 eigenvalues of (default mixing * dielectric matrix)
  average eigenvalue GAMMA=   0.4616
  1.5885  1.5885  0.8056  0.8056  0.4534  0.4534  0.0363  0.1418  0.1199  0.1199
  0.1050  0.0868  0.0769  0.0808

 Free energy of the ion-electron system (eV)
  ---------------------------------------------------
  alpha Z        PSCENC =      1234.26540956
  Ewald energy   TEWEN  =    247954.47992358
  -Hartree energ DENC   =   -316594.58341918
  -exchange      EXHF   =         0.00000000
  -V(xc)+E(xc)   XCENC  =      2070.36938001
  PAW double counting   =     74435.73827612   -78834.04393469
  entropy T*S    EENTRO =        -0.08680222
  eigenvalues    EBANDS =     -1324.54804575
  atomic energy  EATOM  =     70700.37078785
  Solvation  Ediel_sol  =         0.00000000
  ---------------------------------------------------
  free energy    TOTEN  =      -358.03842473 eV

  energy without entropy =     -357.95162251  energy(sigma->0) =     -358.00949065


--------------------------------------------------------------------------------------------------------




--------------------------------------- Iteration      1(  16)  ---------------------------------------


    POTLOK:  cpu time    0.4132: real time    0.4279
    SETDIJ:  cpu time    0.0232: real time    0.0232
    EDDIAG:  cpu time    6.0082: real time    6.0104
  RMM-DIIS:  cpu time   20.8375: real time   20.8490
    ORTHCH:  cpu time    1.7160: real time    1.7163
       DOS:  cpu time    0.0096: real time    0.0096
    CHARGE:  cpu time    1.3414: real time    1.3416
    MIXING:  cpu time    0.0090: real time    0.0090
    --------------------------------------------
      LOOP:  cpu time   30.3580: real time   30.3870

 eigenvalue-minimisations  :  8684
 total energy-change (2. order) : 0.9532675E-02  (-0.2652796E-03)
 number of electron     664.0000051 magnetization      42.9154398
 augmentation part      397.3704753 magnetization      40.2148370

 DIPCOR: dipole corrections for dipol
 direction  3 min pos   244,
 dipolmoment           0.000000      0.000000      0.339981 electrons x Angstroem
 Tr[quadrupol]    -10848.109645

 energy correction for charged system         0.000000 eV
 dipol+quadrupol energy correction           -0.005760 eV
 added-field ion interaction          6.744061 eV  (added to PSCEN)


 Broyden mixing:
  rms(total) = 0.13197E+00    rms(broyden)= 0.13197E+00
  rms(prec ) = 0.15421E+00
  weight for this iteration     100.00

 eigenvalues of (default mixing * dielectric matrix)
  average eigenvalue GAMMA=   0.4753
  1.7139  1.7139  0.8970  0.8970  0.5157  0.5157  0.0363  0.1484  0.1294  0.1203
  0.1134  0.0873  0.0845  0.0767  0.0801

 Free energy of the ion-electron system (eV)
  ---------------------------------------------------
  alpha Z        PSCENC =      1234.22023779
  Ewald energy   TEWEN  =    247954.47992358
  -Hartree energ DENC   =   -316597.15442989
  -exchange      EXHF   =         0.00000000
  -V(xc)+E(xc)   XCENC  =      2070.37118662
  PAW double counting   =     74410.47417584   -78807.85294802
  entropy T*S    EENTRO =        -0.08655159
  eigenvalues    EBANDS =     -1322.85127423
  atomic energy  EATOM  =     70700.37078785
  Solvation  Ediel_sol  =         0.00000000
  ---------------------------------------------------
  free energy    TOTEN  =      -358.02889205 eV

  energy without entropy =     -357.94234046  energy(sigma->0) =     -358.00004152


--------------------------------------------------------------------------------------------------------




--------------------------------------- Iteration      1(  17)  ---------------------------------------


    POTLOK:  cpu time    0.4140: real time    0.4263
    SETDIJ:  cpu time    0.0231: real time    0.0231
    EDDIAG:  cpu time    6.0299: real time    6.0329
  RMM-DIIS:  cpu time   20.8226: real time   20.8368
    ORTHCH:  cpu time    1.7073: real time    1.7077
       DOS:  cpu time    0.0093: real time    0.0093
    CHARGE:  cpu time    1.3388: real time    1.3391
    MIXING:  cpu time    0.0093: real time    0.0093
    --------------------------------------------
      LOOP:  cpu time   30.3544: real time   30.3845

 eigenvalue-minimisations  :  8696
 total energy-change (2. order) : 0.1180242E-01  (-0.2073477E-03)
 number of electron     664.0000051 magnetization      42.9115190
 augmentation part      397.4021920 magnetization      40.2165242

 DIPCOR: dipole corrections for dipol
 direction  3 min pos   233,
 dipolmoment           0.000000      0.000000      0.343029 electrons x Angstroem
 Tr[quadrupol]    -10847.668801

 energy correction for charged system         0.000000 eV
 dipol+quadrupol energy correction           -0.005864 eV
 added-field ion interaction         -9.663126 eV  (added to PSCEN)


 Broyden mixing:
  rms(total) = 0.87269E-01    rms(broyden)= 0.87268E-01
  rms(prec ) = 0.10978E+00
  weight for this iteration     100.00

 eigenvalues of (default mixing * dielectric matrix)
  average eigenvalue GAMMA=   0.4796
  1.7749  1.7749  0.9266  0.9266  0.5071  0.5071  0.3835  0.0363  0.1452  0.1297
[...]
   -.355E+01 0.209E+01 0.118E+04   0.362E+01 -.215E+01 -.118E+04   -.533E-01 0.308E-01 -.173E+00   0.512E-02 0.106E-01 0.122E-01
   0.793E-01 0.468E+01 -.864E+03   -.720E-01 -.460E+01 0.863E+03   0.283E-03 -.601E-01 0.441E+00   -.755E-02 -.265E-02 0.196E-01
   0.193E+00 -.873E-01 0.319E+04   -.218E+00 0.118E+00 -.319E+04   0.182E-01 -.111E-01 -.142E+01   -.155E-01 -.742E-02 0.990E-02
   0.974E+02 -.561E+02 -.291E+04   -.991E+02 0.570E+02 0.291E+04   0.169E+01 -.976E+00 0.487E+00   0.316E-01 0.124E-01 0.776E-02
   -.836E-02 0.301E-01 0.118E+04   0.859E-02 -.320E-01 -.118E+04   -.114E-03 0.475E-04 -.233E+00   -.721E-04 0.907E-03 0.390E-01
   -.401E+01 -.234E+01 -.864E+03   0.393E+01 0.228E+01 0.863E+03   0.524E-01 0.302E-01 0.441E+00   0.248E-01 0.168E-01 0.150E-01
   -.181E+00 -.102E+00 0.319E+04   0.226E+00 0.129E+00 -.319E+04   -.182E-01 -.111E-01 -.142E+01   -.531E-02 -.322E-02 0.102E-01
   -.975E+02 -.562E+02 -.291E+04   0.991E+02 0.571E+02 0.291E+04   -.169E+01 -.976E+00 0.487E+00   0.131E-01 -.119E-01 0.528E-03
   -.788E-01 -.419E+01 0.118E+04   0.799E-01 0.428E+01 -.118E+04   0.184E-03 -.611E-01 -.173E+00   -.338E-03 -.319E-02 0.545E-01
   0.399E+01 -.241E+01 -.864E+03   -.395E+01 0.236E+01 0.863E+03   -.520E-01 0.297E-01 0.441E+00   0.212E-01 0.671E-02 0.472E-01
   0.153E+00 -.103E+00 0.319E+04   -.209E+00 0.122E+00 -.319E+04   0.182E-01 -.108E-01 -.142E+01   0.152E-01 0.371E-02 0.857E-02
   0.976E+02 -.564E+02 -.291E+04   -.992E+02 0.574E+02 0.291E+04   0.169E+01 -.977E+00 0.489E+00   -.296E-01 -.309E-01 0.610E-02
   0.347E-02 0.240E-01 0.118E+04   -.367E-02 -.276E-01 -.118E+04   0.109E-03 0.181E-03 -.233E+00   0.640E-04 0.259E-02 0.275E-01
   -.409E+01 -.240E+01 -.864E+03   0.405E+01 0.237E+01 0.864E+03   0.517E-01 0.304E-01 0.441E+00   -.244E-01 -.407E-02 0.483E-01
   -.167E+00 -.884E-01 0.319E+04   0.201E+00 0.112E+00 -.319E+04   -.182E-01 -.109E-01 -.142E+01   0.561E-02 -.492E-03 0.824E-02
   -.976E+02 -.563E+02 -.291E+04   0.992E+02 0.572E+02 0.291E+04   -.169E+01 -.977E+00 0.490E+00   -.151E-01 -.659E-02 0.133E-01
   0.776E-01 -.414E+01 0.118E+04   -.788E-01 0.422E+01 -.118E+04   -.549E-04 -.612E-01 -.173E+00   0.345E-03 0.742E-02 0.134E-01
   0.409E+01 -.232E+01 -.864E+03   -.401E+01 0.228E+01 0.863E+03   -.518E-01 0.308E-01 0.441E+00   -.216E-01 0.607E-02 0.161E-01
   0.138E-01 0.217E+00 0.319E+04   -.273E-02 -.252E+00 -.319E+04   -.169E-04 0.208E-01 -.142E+01   -.110E-01 -.117E-01 0.721E-02
   0.892E-02 0.112E+03 -.291E+04   -.337E-01 -.114E+03 0.291E+04   0.390E-03 0.195E+01 0.488E+00   0.246E-01 0.133E-01 0.115E-01
   0.362E+01 0.211E+01 0.118E+04   -.368E+01 -.214E+01 -.118E+04   0.532E-01 0.306E-01 -.173E+00   -.470E-02 -.102E-01 0.328E-01
   0.668E-01 0.986E-01 -.890E+03   -.801E-01 -.102E+00 0.891E+03   -.127E-03 0.317E-03 -.117E+01   0.134E-01 0.229E-02 0.115E-01
   -.764E-02 -.219E-02 0.319E+04   0.145E-01 0.624E-02 -.319E+04   -.506E-05 -.378E-03 -.124E+01   -.680E-02 -.413E-02 0.710E-02
   -.945E-01 -.119E+00 -.292E+04   0.884E-01 0.127E+00 0.292E+04   -.757E-03 -.254E-02 0.304E+01   0.792E-02 -.402E-02 0.411E-02
   -.368E+01 0.206E+01 0.118E+04   0.375E+01 -.209E+01 -.118E+04   -.532E-01 0.305E-01 -.173E+00   -.306E-02 -.119E-01 0.446E-01
   -.801E-01 0.469E+01 -.863E+03   0.662E-01 -.462E+01 0.863E+03   -.187E-03 -.601E-01 0.441E+00   0.142E-01 -.509E-02 0.367E-01
   -.136E-01 0.194E+00 0.319E+04   0.260E-02 -.245E+00 -.319E+04   0.254E-04 0.206E-01 -.142E+01   0.110E-01 0.503E-02 0.306E-02
   0.215E-01 0.113E+03 -.291E+04   0.265E-02 -.115E+03 0.291E+04   0.443E-03 0.195E+01 0.490E+00   -.246E-01 -.227E-01 0.137E-01
   0.363E+01 0.211E+01 0.118E+04   -.371E+01 -.214E+01 -.118E+04   0.531E-01 0.310E-01 -.173E+00   0.352E-02 -.111E-01 0.261E-01
   -.783E-01 -.201E-01 -.890E+03   0.919E-01 0.466E-01 0.891E+03   0.332E-03 0.948E-03 -.117E+01   -.134E-01 -.270E-01 0.414E-01
   0.672E-02 0.140E-01 0.319E+04   -.135E-01 -.114E-01 -.319E+04   0.120E-04 -.459E-03 -.124E+01   0.680E-02 -.270E-02 0.482E-02
   0.775E-01 -.344E-01 -.292E+04   -.702E-01 0.428E-01 0.292E+04   -.296E-03 0.153E-02 0.304E+01   -.795E-02 -.891E-02 0.112E-01
   -.356E+01 0.215E+01 0.118E+04   0.362E+01 -.219E+01 -.118E+04   -.533E-01 0.311E-01 -.173E+00   0.424E-02 -.951E-02 0.142E-01
   0.644E-01 0.471E+01 -.864E+03   -.497E-01 -.462E+01 0.863E+03   0.391E-03 -.596E-01 0.441E+00   -.143E-01 -.210E-01 0.179E-01
   0.784E-01 0.374E-01 -.231E+04   -.964E-01 -.528E-01 0.234E+04   0.768E-02 0.161E-02 -.282E+02   0.107E-01 0.129E-01 0.374E-03
   -.108E+00 -.868E-01 -.231E+04   0.137E+00 0.104E+00 0.234E+04   -.956E-02 -.813E-02 -.282E+02   -.187E-01 -.834E-02 0.177E-03
   0.110E+00 -.240E-01 -.231E+04   -.139E+00 0.237E-01 0.234E+04   0.940E-02 -.206E-02 -.282E+02   0.187E-01 0.392E-02 -.346E-02
   -.855E-01 -.920E-01 -.231E+04   0.104E+00 0.110E+00 0.234E+04   -.916E-02 -.103E-01 -.282E+02   -.106E-01 -.875E-02 0.687E-02
 -----------------------------------------------------------------------------------------------
   0.105E-02 0.206E-01 0.118E+03   0.585E-13 -.241E-11 -.909E-11   -.155E-02 -.227E-01 -.119E+03   0.169E-04 -.636E-03 0.120E+01
 
 
 POSITION                                       TOTAL-FORCE (eV/Angst)
 -----------------------------------------------------------------------------------
     -0.00000      1.94796      2.00000        -0.021734      0.012125      0.250102
     -0.02853      1.96442      8.07221         0.036680     -0.023751      0.018127
      1.24593      1.22862      4.03457         0.000036     -0.000710     -0.275421
      0.00233      0.51054      6.00853        -0.005959     -0.003990      0.009320
      2.49184      1.94796      2.00000         0.021779      0.012112      0.250081
      2.52064      1.96339      8.07274        -0.037717     -0.019758      0.016526
      3.73777      1.22862      4.03457         0.000601      0.022176     -0.244911
      2.48925      0.51018      6.00860         0.007194     -0.002731      0.009087
      4.98369      1.94796      2.00000        -0.021797      0.012089      0.250189
      4.95506      1.96337      8.07293         0.033935     -0.016371      0.012166
      6.22962      1.22862      4.03457        -0.000084     -0.000789     -0.274066
      4.98644      0.51017      6.00893        -0.007719     -0.002858      0.007255
      7.47553      1.94796      2.00000         0.021833      0.012105      0.250193
      7.50482      1.96429      8.07241        -0.034447     -0.019518      0.013409
      8.72146      1.22862      4.03457        -0.000579      0.023075     -0.245967
      7.47308      0.51049      6.00881         0.006739     -0.003860      0.007743
     -1.24593      4.10596      2.00000         0.000065     -0.025642      0.250106
     -1.24564      4.07284      8.07252        -0.001915      0.041225      0.016423
      0.00000      3.38662      4.03457        -0.019416     -0.011271     -0.246399
     -1.24567      2.66739      6.04531        -0.001433     -0.001193     -0.004456
      1.24592      4.10596      2.00000         0.000031     -0.000417      0.188976
      1.24591      4.10493      7.95911         0.000410      0.002074      0.044813
      2.49185      3.38662      4.03457         0.020873     -0.011650     -0.245687
      1.24616      2.66397      6.00845        -0.000744      0.007932      0.009476
      3.73776      4.10596      2.00000        -0.000030     -0.025658      0.250142
      3.73765      4.07179      8.07350         0.001644      0.036084      0.008407
      4.98369      3.38662      4.03457        -0.020248     -0.012205     -0.245270
      3.73779      2.66653      6.04561         0.000698      0.001880     -0.003661
      6.22961      4.10596      2.00000         0.000011     -0.000433      0.189256
      6.22974      4.10511      7.95915        -0.000419      0.001055      0.045235
      7.47554      3.38662      4.03457         0.019619     -0.011869     -0.246083
      6.22965      2.66389      6.00867        -0.000010      0.008422      0.008267
     -2.49185      6.26396      2.00000        -0.021745      0.012142      0.250118
     -2.52079      6.28029      8.07222         0.037333     -0.023220      0.018141
     -1.24592      5.54462      4.03457         0.000045     -0.000857     -0.275117
     -2.48948      4.82649      6.00860        -0.006217     -0.003751      0.008908
     -0.00000      6.26396      2.00000         0.021803      0.012096      0.250024
      0.02877      6.28016      8.07284        -0.036936     -0.021748      0.015671
      1.24593      5.54462      4.03457         0.000892      0.022875     -0.244795
     -0.00233      4.82663      6.00869         0.006342     -0.004266      0.008444
      2.49184      6.26396      2.00000        -0.021809      0.012097      0.250117
      2.46302      6.27943      8.07316         0.032401     -0.015453      0.010049
      3.73777      5.54462      4.03457        -0.000019     -0.000825     -0.273896
      2.49455      4.82619      6.00894        -0.007349     -0.002827      0.007166
      4.98369      6.26396      2.00000         0.021845      0.012143      0.250222
      5.01222      6.27972      8.07246        -0.031384     -0.017734      0.013055
      6.22962      5.54462      4.03457        -0.000832      0.022566     -0.245297
      4.98101      4.82609      6.00886         0.007535     -0.002517      0.007666
     -3.73777      8.42196      2.00000         0.000052     -0.025621      0.250090
     -3.73808      8.38848      8.07253         0.000191      0.043748      0.018518
     -2.49184      7.70262      4.03457        -0.020259     -0.012178     -0.246502
     -3.73801      6.98308      6.04544         0.000016     -0.000670     -0.005121
     -1.24593      8.42196      2.00000         0.000036     -0.000420      0.189041
     -1.24607      8.42094      7.95903         0.000969      0.001842      0.045425
      0.00000      7.70262      4.03457         0.020553     -0.011830     -0.245480
     -1.24594      6.97995      6.00845         0.000121      0.007913      0.009392
      1.24592      8.42196      2.00000        -0.000006     -0.025644      0.250094
      1.24626      8.38830      8.07339         0.000018      0.038517      0.011204
      2.49185      7.70262      4.03457        -0.020241     -0.011711     -0.245146
      1.24598      6.98296      6.04568         0.000545      0.000474     -0.003978
      3.73776      8.42196      2.00000         0.000002     -0.000430      0.189187
      3.73796      8.42116      7.95909        -0.000839      0.001017      0.045455
      4.98369      7.70262      4.03457         0.019280     -0.011991     -0.245876
      3.73757      6.97986      6.00871         0.000765      0.008701      0.008187
      1.24550      1.22844      9.17493         0.000385     -0.000802     -0.046173
      3.73794      5.54388      9.17393        -0.000159      0.000436     -0.027915
     -1.24627      5.54458      9.17458        -0.000241      0.001569     -0.042741
      6.23052      1.22872      9.17401        -0.000992     -0.001322     -0.031512
 -----------------------------------------------------------------------------------
    total drift:                               -0.000479     -0.002746      0.031072


--------------------------------------------------------------------------------------------------------



  FREE ENERGIE OF THE ION-ELECTRON SYSTEM (eV)
  ---------------------------------------------------
  free  energy   TOTEN  =      -376.27505672 eV

  energy  without entropy=     -376.18986141  energy(sigma->0) =     -376.24665829
 
 d Force = 0.3031088E-03[ 0.116E-04, 0.595E-03]  d Energy = 0.2880362E-03 0.151E-04
 d Force = 0.2192376E+02[ 0.219E+02, 0.219E+02]  d Ewald  = 0.2192376E+02-0.225E-05


--------------------------------------------------------------------------------------------------------


    POTLOK:  cpu time    0.4346: real time    0.4348


--------------------------------------------------------------------------------------------------------


 stress matrix after NEB project (eV)
    -34.40423      0.00136     -0.00271
      0.00136    -34.38850      0.01497
     -0.00271      0.01497     -7.19395
  FORCES: max atom, RMS     0.047561    0.023539
  FORCE total and by dimension    0.194111    0.046173
  Stress total and by dimension   49.172890   34.404227


--------------------------------------------------------------------------------------------------------


  
 reached required accuracy - stopping structural energy minimisation
 writing wavefunctions
     LOOP+:  cpu time  379.6230: real time  433.5166
    4ORBIT:  cpu time    0.0000: real time    0.0000
 


 total charge     
 
# of ion       s       p       d       tot
------------------------------------------
    1        0.486   0.377   8.304   9.167
    2        0.495   0.504   8.321   9.321
    3        0.499   0.505   8.316   9.319
    4        0.498   0.504   8.320   9.322
    5        0.486   0.377   8.305   9.167
    6        0.495   0.504   8.321   9.320
    7        0.497   0.502   8.312   9.311
    8        0.498   0.504   8.319   9.322
    9        0.486   0.377   8.304   9.167
   10        0.495   0.504   8.322   9.321
   11        0.499   0.505   8.315   9.319
   12        0.498   0.504   8.319   9.322
   13        0.486   0.377   8.304   9.167
   14        0.495   0.504   8.322   9.321
   15        0.497   0.502   8.312   9.311
   16        0.498   0.504   8.320   9.322
   17        0.486   0.377   8.304   9.167
   18        0.495   0.504   8.321   9.320
   19        0.497   0.502   8.312   9.311
   20        0.503   0.506   8.328   9.337
   21        0.489   0.377   8.299   9.164
   22        0.474   0.376   8.352   9.202
   23        0.497   0.502   8.312   9.311
   24        0.498   0.504   8.319   9.322
   25        0.486   0.377   8.304   9.167
   26        0.495   0.504   8.322   9.321
   27        0.497   0.502   8.312   9.311
   28        0.503   0.506   8.328   9.337
   29        0.489   0.377   8.298   9.164
   30        0.474   0.376   8.353   9.203
   31        0.497   0.502   8.312   9.311
   32        0.498   0.504   8.320   9.322
   33        0.486   0.377   8.304   9.167
   34        0.495   0.504   8.322   9.321
   35        0.499   0.505   8.315   9.319
   36        0.498   0.504   8.320   9.322
   37        0.486   0.377   8.305   9.167
   38        0.495   0.504   8.321   9.320
   39        0.497   0.502   8.312   9.311
   40        0.498   0.504   8.319   9.322
   41        0.486   0.377   8.305   9.167
   42        0.495   0.504   8.321   9.321
   43        0.499   0.505   8.315   9.319
   44        0.498   0.504   8.319   9.321
   45        0.486   0.377   8.304   9.167
   46        0.495   0.504   8.322   9.321
   47        0.497   0.502   8.312   9.311
   48        0.498   0.504   8.320   9.322
   49        0.486   0.377   8.304   9.167
   50        0.495   0.504   8.322   9.320
   51        0.497   0.502   8.312   9.311
   52        0.503   0.506   8.328   9.337
   53        0.489   0.377   8.299   9.164
   54        0.475   0.376   8.352   9.203
   55        0.497   0.502   8.312   9.311
   56        0.498   0.504   8.319   9.322
   57        0.486   0.377   8.305   9.167
   58        0.495   0.504   8.321   9.320
   59        0.497   0.502   8.312   9.311
   60        0.503   0.506   8.327   9.337
   61        0.489   0.377   8.298   9.164
   62        0.474   0.376   8.353   9.203
   63        0.497   0.502   8.312   9.311
   64        0.498   0.504   8.320   9.322
   65        1.583   3.337   0.000   4.919
   66        1.583   3.337   0.000   4.920
   67        1.583   3.337   0.000   4.919
   68        1.583   3.337   0.000   4.920
--------------------------------------------------
tot         37.893  43.058 532.266 613.217
 


 magnetization (x)
 
# of ion       s       p       d       tot
------------------------------------------
    1       -0.008  -0.025   0.708   0.674
    2       -0.003  -0.013   0.594   0.578
    3       -0.006  -0.025   0.766   0.735
    4       -0.007  -0.025   0.734   0.703
    5       -0.008  -0.025   0.708   0.674
    6       -0.003  -0.013   0.594   0.578
    7       -0.006  -0.025   0.731   0.700
    8       -0.007  -0.025   0.734   0.703
    9       -0.008  -0.025   0.708   0.674
   10       -0.003  -0.013   0.593   0.577
   11       -0.006  -0.025   0.766   0.735
   12       -0.007  -0.025   0.734   0.703
   13       -0.008  -0.025   0.708   0.674
   14       -0.003  -0.013   0.593   0.577
   15       -0.006  -0.025   0.731   0.701
   16       -0.007  -0.025   0.734   0.703
   17       -0.008  -0.025   0.708   0.674
   18       -0.003  -0.013   0.594   0.578
   19       -0.006  -0.025   0.731   0.700
   20       -0.006  -0.021   0.615   0.588
   21       -0.001  -0.025   0.748   0.722
   22       -0.011  -0.016   0.783   0.756
   23       -0.006  -0.025   0.731   0.700
   24       -0.007  -0.025   0.734   0.703
   25       -0.008  -0.025   0.708   0.674
   26       -0.003  -0.013   0.593   0.577
   27       -0.006  -0.025   0.731   0.700
   28       -0.006  -0.021   0.615   0.588
   29       -0.001  -0.025   0.749   0.722
   30       -0.011  -0.016   0.782   0.755
   31       -0.006  -0.025   0.731   0.700
   32       -0.007  -0.025   0.734   0.703
   33       -0.008  -0.025   0.708   0.674
   34       -0.003  -0.013   0.594   0.577
   35       -0.006  -0.025   0.766   0.735
   36       -0.007  -0.025   0.734   0.703
   37       -0.008  -0.025   0.708   0.674
   38       -0.003  -0.013   0.594   0.578
   39       -0.006  -0.025   0.731   0.701
   40       -0.007  -0.025   0.734   0.703
   41       -0.008  -0.025   0.708   0.674
   42       -0.003  -0.013   0.593   0.577
   43       -0.006  -0.025   0.766   0.735
   44       -0.007  -0.025   0.734   0.703
   45       -0.008  -0.025   0.708   0.675
   46       -0.003  -0.013   0.593   0.577
   47       -0.006  -0.025   0.731   0.701
   48       -0.007  -0.025   0.734   0.703
   49       -0.008  -0.025   0.708   0.674
   50       -0.003  -0.013   0.594   0.578
   51       -0.006  -0.025   0.731   0.701
   52       -0.006  -0.021   0.615   0.588
   53       -0.001  -0.025   0.748   0.722
   54       -0.011  -0.016   0.782   0.755
   55       -0.006  -0.025   0.731   0.700
   56       -0.007  -0.025   0.734   0.703
   57       -0.008  -0.025   0.708   0.674
   58       -0.003  -0.013   0.593   0.577
   59       -0.006  -0.025   0.731   0.700
   60       -0.006  -0.021   0.615   0.588
   61       -0.001  -0.025   0.749   0.722
   62       -0.011  -0.016   0.782   0.755
   63       -0.006  -0.025   0.731   0.701
   64       -0.007  -0.025   0.734   0.703
   65        0.002   0.121   0.000   0.123
   66        0.002   0.121   0.000   0.123
   67        0.002   0.121   0.000   0.123
   68        0.002   0.121   0.000   0.123
--------------------------------------------------
tot         -0.366  -0.923  44.842  43.553
 

 total amount of memory used by VASP MPI-rank0   113815. kBytes
=======================================================================

   base      :      30000. kBytes
   nonlr-proj:      12205. kBytes
   fftplans  :       6402. kBytes
   grid      :      16455. kBytes
   one-center:         93. kBytes
   wavefun   :      48660. kBytes
 
  
  
 General timing and accounting informations for this job:
 ========================================================
  
                  Total CPU time used (sec):     2220.687
                            User time (sec):     2086.264
                          System time (sec):      134.423
                         Elapsed time (sec):     2279.726
  
                   Maximum memory used (kb):      349172.
                   Average memory used (kb):           0.
  
                          Minor page faults:     24915992
                          Major page faults:            0
                 Voluntary context switches:         4309
