       N       E                     dE             d eps       ncg     rms          rms(c)
DAV:   1     0.433599908858E+04    0.43360E+04   -0.22978E+05  8160   0.140E+03
DAV:   2    -0.640839948488E+02   -0.44001E+04   -0.40924E+04  8160   0.328E+02
DAV:   3    -0.437822349651E+03   -0.37374E+03   -0.31816E+03  8520   0.135E+02
DAV:   4    -0.452930839208E+03   -0.15108E+02   -0.14729E+02  8724   0.293E+01
DAV:   5    -0.453193708376E+03   -0.26287E+00   -0.26256E+00  9246   0.333E+00    0.629E-01
RMM:   6    -0.453324471643E+03   -0.13076E+00   -0.16423E-01  8398   0.995E-01    0.213E+00
RMM:   7    -0.453313826917E+03    0.10645E-01   -0.36313E-02  9269   0.403E-01    0.130E+00
RMM:   8    -0.453309123603E+03    0.47033E-02   -0.10368E-02  9778   0.185E-01    0.975E-01
RMM:   9    -0.453304172495E+03    0.49511E-02   -0.39205E-03  8531   0.137E-01    0.464E-01
RMM:  10    -0.453302962397E+03    0.12101E-02   -0.23734E-03  8497   0.111E-01    0.401E-01
RMM:  11    -0.453300619622E+03    0.23428E-02   -0.95624E-04  8473   0.749E-02    0.301E-01
RMM:  12    -0.453299424850E+03    0.11948E-02   -0.91536E-04  8505   0.741E-02    0.308E-01
RMM:  13    -0.453297154488E+03    0.22704E-02   -0.59088E-04  8397   0.598E-02    0.308E-01
RMM:  14    -0.453296443272E+03    0.71122E-03   -0.56527E-04  8455   0.602E-02    0.179E-01
RMM:  15    -0.453296880390E+03   -0.43712E-03   -0.28383E-04  8405   0.409E-02    0.218E-01
RMM:  16    -0.453297307745E+03   -0.42736E-03   -0.18935E-04  8425   0.356E-02    0.956E-02
RMM:  17    -0.453299570207E+03   -0.22625E-02   -0.16921E-04  8388   0.302E-02    0.168E-01
RMM:  18    -0.453301725781E+03   -0.21556E-02   -0.12708E-04  8403   0.277E-02    0.741E-02
RMM:  19    -0.453303856463E+03   -0.21307E-02   -0.13406E-04  8432   0.265E-02    0.134E-01
RMM:  20    -0.453306895630E+03   -0.30392E-02   -0.14215E-04  8374   0.252E-02    0.535E-02
RMM:  21    -0.453307531479E+03   -0.63585E-03   -0.43766E-05  8508   0.147E-02    0.539E-02
RMM:  22    -0.453308632489E+03   -0.11010E-02   -0.41620E-05  8334   0.108E-02    0.279E-02
RMM:  23    -0.453308713660E+03   -0.81171E-04   -0.90712E-06  8142   0.607E-03    0.153E-02
RMM:  24    -0.453308734399E+03   -0.20739E-04   -0.73835E-06  6947   0.387E-03    0.158E-02
RMM:  25    -0.453308691873E+03    0.42526E-04   -0.16672E-06  5856   0.327E-03    0.682E-03
RMM:  26    -0.453308625554E+03    0.66319E-04   -0.11040E-06  5522   0.226E-03    0.958E-03
RMM:  27    -0.453308611119E+03    0.14435E-04   -0.57417E-07  4990   0.218E-03    0.346E-03
RMM:  28    -0.453308627775E+03   -0.16656E-04   -0.26612E-07  4893   0.996E-04    0.414E-03
RMM:  29    -0.453308639518E+03   -0.11742E-04   -0.15822E-07  4804   0.104E-03    0.228E-03
RMM:  30    -0.453308673570E+03   -0.34052E-04   -0.18916E-07  4942   0.648E-04    0.227E-03
RMM:  31    -0.453308687811E+03   -0.14241E-04   -0.82043E-08  4665   0.617E-04    0.135E-03
RMM:  32    -0.453308727998E+03   -0.40187E-04   -0.22157E-07  4389   0.485E-04    0.135E-03
RMM:  33    -0.453308742082E+03   -0.14084E-04   -0.72074E-08  3915   0.433E-04    0.839E-04
RMM:  34    -0.453308785120E+03   -0.43038E-04   -0.39092E-07  4328   0.521E-04    0.913E-04
RMM:  35    -0.453308801388E+03   -0.16267E-04   -0.14378E-07  3758   0.436E-04    0.927E-04
RMM:  36    -0.453308825388E+03   -0.24001E-04   -0.36459E-07  4378   0.510E-04    0.135E-03
RMM:  37    -0.453308828439E+03   -0.30509E-05   -0.50132E-08  3125   0.382E-04    0.733E-04
RMM:  38    -0.453308832752E+03   -0.43133E-05   -0.56040E-08  2724   0.340E-04    0.432E-04
RMM:  39    -0.453308835327E+03   -0.25749E-05   -0.32449E-08  2678   0.323E-04    0.499E-04
RMM:  40    -0.453308837095E+03   -0.17673E-05   -0.21763E-08  2529   0.314E-04    0.223E-04
RMM:  41    -0.453308838115E+03   -0.10200E-05   -0.15376E-08  2417   0.294E-04    0.215E-04
RMM:  42    -0.453308839130E+03   -0.10151E-05   -0.14736E-08  2286   0.290E-04    0.137E-04
RMM:  43    -0.453308839533E+03   -0.40313E-06   -0.76161E-09  2180   0.283E-04
   1 F= -.45330884E+03 E0= -.45330884E+03  d E =0.000000E+00  mag=   134.8113
