 vasp.5.4.4.18Apr17-6-g9f103f2a35 (build Sep 06 2021 19:49:22) complex          
  
 executed on             LinuxIFC date 2022.01.05  17:15:20
 running on   72 total cores
 distrk:  each k-point on   72 cores,    1 groups
 distr:  one band on NCORES_PER_BAND=  24 cores,    3 groups


--------------------------------------------------------------------------------------------------------


 INCAR:
 POTCAR:    PAW_PBE Fe 06Sep2000                  
 POTCAR:    PAW_PBE Ni 02Aug2007                  

 ----------------------------------------------------------------------------- 
|                                                                             |
|           W    W    AA    RRRRR   N    N  II  N    N   GGGG   !!!           |
|           W    W   A  A   R    R  NN   N  II  NN   N  G    G  !!!           |
|           W    W  A    A  R    R  N N  N  II  N N  N  G       !!!           |
|           W WW W  AAAAAA  RRRRR   N  N N  II  N  N N  G  GGG   !            |
|           WW  WW  A    A  R   R   N   NN  II  N   NN  G    G                |
|           W    W  A    A  R    R  N    N  II  N    N   GGGG   !!!           |
|                                                                             |
|      For optimal performance we recommend to set                            |
|        NCORE= 4 - approx SQRT( number of cores)                             |
|      NCORE specifies how many cores store one orbital (NPAR=cpu/NCORE).     |
|      This setting can  greatly improve the performance of VASP for DFT.     |
|      The default,   NCORE=1            might be grossly inefficient         |
|      on modern multi-core architectures or massively parallel machines.     |
|      Do your own testing !!!!                                               |
|      Unfortunately you need to use the default for GW and RPA calculations. |
|      (for HF NCORE is supported but not extensively tested yet)             |
|                                                                             |
 ----------------------------------------------------------------------------- 

 POTCAR:    PAW_PBE Fe 06Sep2000                  
   VRHFIN =Fe:  d7 s1                                                           
   LEXCH  = PE                                                                  
   EATOM  =   594.3153 eV,   43.6809 Ry                                         
                                                                                
   TITEL  = PAW_PBE Fe 06Sep2000                                                
   LULTRA =        F    use ultrasoft PP ?                                      
   IUNSCR =        1    unscreen: 0-lin 1-nonlin 2-no                           
   RPACOR =    2.000    partial core radius                                     
   POMASS =   55.847; ZVAL   =    8.000    mass and valenz                      
   RCORE  =    2.300    outmost cutoff radius                                   
   RWIGS  =    2.460; RWIGS  =    1.302    wigner-seitz radius (au A)           
   ENMAX  =  267.882; ENMIN  =  200.911 eV                                      
   RCLOC  =    1.701    cutoff for local pot                                    
   LCOR   =        T    correct aug charges                                     
   LPAW   =        T    paw PP                                                  
   EAUG   =  511.368                                                            
   DEXC   =    0.000                                                            
   RMAX   =    2.356    core radius for proj-oper                               
   RAUG   =    1.300    factor for augmentation sphere                          
   RDEP   =    2.442    radius for radial grids                                 
   RDEPT  =    1.890    core radius for aug-charge                              
                                                                                
   Atomic configuration                                                         
    9 entries                                                                   
     n  l   j            E        occ.                                          
     1  0  0.50     -6993.8440   2.0000                                         
     2  0  0.50      -814.6047   2.0000                                         
     2  1  1.50      -693.3689   6.0000                                         
     3  0  0.50       -89.4732   2.0000                                         
     3  1  1.50       -55.6373   6.0000                                         
     3  2  2.50        -3.8151   7.0000                                         
     4  0  0.50        -4.2551   1.0000                                         
     4  1  1.50        -3.4015   0.0000                                         
     4  3  2.50        -1.3606   0.0000                                         
   Description                                                                  
     l       E           TYP  RCUT    TYP  RCUT                                 
     2     -3.8151135     23  2.300                                             
     2     -5.1756961     23  2.300                                             
     0     -4.2550963     23  2.300                                             
     0      7.2035603     23  2.300                                             
     1     -2.7211652     23  2.300                                             
     1     18.4316424     23  2.300                                             
  local pseudopotential read in
  partial core-charges read in
  partial kinetic energy density read in
  atomic valenz-charges read in
  non local Contribution for L=           2  read in
    real space projection operators read in
  non local Contribution for L=           2  read in
    real space projection operators read in
  non local Contribution for L=           0  read in
    real space projection operators read in
  non local Contribution for L=           0  read in
    real space projection operators read in
  non local Contribution for L=           1  read in
    real space projection operators read in
  non local Contribution for L=           1  read in
    real space projection operators read in
    PAW grid and wavefunctions read in
 
   number of l-projection  operators is LMAX  =           6
   number of lm-projection operators is LMMAX =          18
 
 POTCAR:    PAW_PBE Ni 02Aug2007                  
   VRHFIN =Ni:                                                                  
   LEXCH  = PE                                                                  
   EATOM  =  1077.6739 eV,   79.2068 Ry                                         
                                                                                
   TITEL  = PAW_PBE Ni 02Aug2007                                                
   LULTRA =        F    use ultrasoft PP ?                                      
   IUNSCR =        1    unscreen: 0-lin 1-nonlin 2-no                           
   RPACOR =    2.000    partial core radius                                     
   POMASS =   58.690; ZVAL   =   10.000    mass and valenz                      
   RCORE  =    2.300    outmost cutoff radius                                   
   RWIGS  =    2.430; RWIGS  =    1.286    wigner-seitz radius (au A)           
   ENMAX  =  269.532; ENMIN  =  202.149 eV                                      
   RCLOC  =    1.201    cutoff for local pot                                    
   LCOR   =        T    correct aug charges                                     
   LPAW   =        T    paw PP                                                  
   EAUG   =  544.565                                                            
   DEXC   =    0.000                                                            
   RMAX   =    2.357    core radius for proj-oper                               
   RAUG   =    1.300    factor for augmentation sphere                          
   RDEP   =    2.390    radius for radial grids                                 
   RDEPT  =    1.838    core radius for aug-charge                              
                                                                                
   Atomic configuration                                                         
    9 entries                                                                   
     n  l   j            E        occ.                                          
     1  0  0.50     -8206.4253   2.0000                                         
     2  0  0.50      -976.1748   2.0000                                         
     2  1  1.50      -839.0571   6.0000                                         
     3  0  0.50      -105.9991   2.0000                                         
     3  1  1.50       -66.4603   6.0000                                         
     3  2  2.50        -4.6458   9.0000                                         
     4  0  0.50        -4.4926   1.0000                                         
     4  1  1.50        -4.0817   0.0000                                         
     4  3  2.50        -1.3606   0.0000                                         
   Description                                                                  
     l       E           TYP  RCUT    TYP  RCUT                                 
     2     -4.6457903     23  2.300                                             
     2     -6.0063729     23  2.300                                             
     0     -4.4925590     23  2.300                                             
     0      5.0102601     23  2.300                                             
     1     -2.7211652     23  2.300                                             
     1     16.5183231     23  2.300                                             
  local pseudopotential read in
  partial core-charges read in
  partial kinetic energy density read in
  atomic valenz-charges read in
  non local Contribution for L=           2  read in
    real space projection operators read in
  non local Contribution for L=           2  read in
    real space projection operators read in
  non local Contribution for L=           0  read in
    real space projection operators read in
  non local Contribution for L=           0  read in
    real space projection operators read in
  non local Contribution for L=           1  read in
    real space projection operators read in
  non local Contribution for L=           1  read in
    real space projection operators read in
    PAW grid and wavefunctions read in
 
   number of l-projection  operators is LMAX  =           6
   number of lm-projection operators is LMMAX =          18
 
 Optimization of the real space projectors (new method)

 maximal supplied QI-value         = 16.25
 optimisation between [QCUT,QGAM] = [ 11.54, 23.24] = [ 37.28,151.24] Ry 
 Optimized for a Real-space Cutoff    1.53 Angstroem

   l    n(q)    QCUT    max X(q) W(low)/X(q) W(high)/X(q)  e(spline) 
   2     10    11.539    80.901    0.11E-03    0.14E-03    0.21E-06
   2     10    11.539    75.754    0.11E-03    0.14E-03    0.22E-06
   0     11    11.539    58.752    0.52E-04    0.18E-04    0.33E-06
   0     11    11.539    30.679    0.44E-04    0.16E-04    0.30E-06
   1     10    11.539    17.977    0.53E-04    0.29E-04    0.13E-06
   1     10    11.539    13.559    0.44E-04    0.25E-04    0.11E-06
 Optimization of the real space projectors (new method)

 maximal supplied QI-value         = 16.25
 optimisation between [QCUT,QGAM] = [ 11.54, 23.24] = [ 37.28,151.24] Ry 
 Optimized for a Real-space Cutoff    1.45 Angstroem

   l    n(q)    QCUT    max X(q) W(low)/X(q) W(high)/X(q)  e(spline) 
   2      9    11.539    60.317    0.19E-03    0.47E-04    0.16E-06
   2      9    11.539    55.921    0.19E-03    0.48E-04    0.16E-06
   0     10    11.539    51.690    0.80E-04    0.50E-04    0.24E-06
   0     10    11.539    30.015    0.73E-04    0.45E-04    0.22E-06
   1     10    11.539    18.849    0.87E-04    0.16E-03    0.71E-07
   1     10    11.539    14.624    0.73E-04    0.13E-03    0.64E-07
  PAW_PBE Fe 06Sep2000                  :
 energy of atom  1       EATOM= -594.3153
 kinetic energy error for atom=    0.0026 (will be added to EATOM!!)
  PAW_PBE Ni 02Aug2007                  :
 energy of atom  2       EATOM=-1077.6739
 kinetic energy error for atom=    0.0030 (will be added to EATOM!!)
 
 
 POSCAR: POSCAR                                  
  positions in direct lattice
  velocities in cartesian coordinates
 exchange correlation table for  LEXCH =        8
   RHO(1)=    0.500       N(1)  =     2000
   RHO(2)=  100.500       N(2)  =     4000
 


--------------------------------------------------------------------------------------------------------


 ion  position               nearest neighbor table
   1  0.002  0.999  0.195-  26 2.50  48 2.51  40 2.52   4 2.53  64 2.54  49 2.54  33 2.55  52 2.56
                            46 2.56   5 2.56   7 2.58   3 2.60
   2  0.499  0.996  0.194-   3 2.47  41 2.50  62 2.51  29 2.52  27 2.52  48 2.53   9 2.55  13 2.55
                            51 2.55  61 2.57  50 2.58  10 2.59
   3  0.743  0.996  0.193-  44 2.46   2 2.47  29 2.47  13 2.49  33 2.53  52 2.53  51 2.54  61 2.55
                            12 2.55  64 2.57  49 2.59   1 2.60
   4  0.249  0.253  0.195-  49 2.49  55 2.51  16 2.52  17 2.53   1 2.53  50 2.54   6 2.54   5 2.55
                            48 2.58  18 2.60  21 2.60   7 2.62
   5  0.083  0.168  0.293-  56 2.45  12 2.48  53 2.49  64 2.51  54 2.52  40 2.54  18 2.54  49 2.54
                             4 2.55   6 2.56   1 2.56   8 2.57
   6  0.335  0.167  0.291-  20 2.51  40 2.52  50 2.52  11 2.53   4 2.54  48 2.54  41 2.55   5 2.56
                            18 2.56   9 2.58   8 2.63  22 2.65
   7  0.168  0.081  0.095-  42 2.50  21 2.52  10 2.54  46 2.54  55 2.55  52 2.55  48 2.55   1 2.58
                             4 2.62
   8  0.165  0.082  0.393-  56 2.51  11 2.51  47 2.51  22 2.53  43 2.54  53 2.55   5 2.57  40 2.58
                             6 2.63
   9  0.592  0.170  0.290-  51 2.47  12 2.50  61 2.50  23 2.51  20 2.54  14 2.54   2 2.55  41 2.55
                            50 2.56   6 2.58  25 2.58  11 2.62
  10  0.422  0.087  0.095-  21 2.43  24 2.47  13 2.50  62 2.52   7 2.54  50 2.55   2 2.59  48 2.60
                            42 2.61
  11  0.415  0.086  0.390-  25 2.49   8 2.51  22 2.52   6 2.53  14 2.54  63 2.55  41 2.56  43 2.58
                             9 2.62
  12  0.837  0.166  0.290-  64 2.47   5 2.48  49 2.49  53 2.50  61 2.50   9 2.50  58 2.51  54 2.52
                            51 2.54   3 2.55  23 2.56  14 2.60
  13  0.667  0.083  0.097-   3 2.49  10 2.50  52 2.52  57 2.54  62 2.54  51 2.54   2 2.55  44 2.56
                            24 2.58
  14  0.668  0.089  0.390-  25 2.48  58 2.50  53 2.51  45 2.52  61 2.53   9 2.54  11 2.54  63 2.57
                            12 2.60
  15  0.003  0.511  0.193-  27 2.44  26 2.45  31 2.45  38 2.46  19 2.48  28 2.55  57 2.56  23 2.57
                            54 2.57  16 2.58  51 2.60  49 2.63
  16  0.256  0.506  0.196-  27 2.45  29 2.47  17 2.48  54 2.51   4 2.52  59 2.54  30 2.57  31 2.57
                            18 2.57  49 2.58  15 2.58  55 2.58
  17  0.500  0.503  0.196-  29 2.48  16 2.48  33 2.50   4 2.53  59 2.53  50 2.54  20 2.57  34 2.57
                            19 2.58  18 2.58  36 2.61  21 2.64
  18  0.333  0.419  0.296-  56 2.45  60 2.48  30 2.50  54 2.51   5 2.54  20 2.54  22 2.55   6 2.56
                            34 2.57  16 2.57  17 2.58   4 2.60
  19  0.757  0.508  0.195-  26 2.40  15 2.48  33 2.48  38 2.50  36 2.53  23 2.56  35 2.56  51 2.57
                            17 2.58  50 2.60  20 2.61  24 2.63
  20  0.583  0.416  0.294-   6 2.51  25 2.52   9 2.54  34 2.54  18 2.54  35 2.56  23 2.56  17 2.57
                            50 2.58  22 2.61  19 2.61  37 2.62
  21  0.420  0.327  0.095-  24 2.41  10 2.43  50 2.49   7 2.52  55 2.56  36 2.58   4 2.60  59 2.61
                            17 2.64
  22  0.413  0.334  0.395-  60 2.50  56 2.50  11 2.52   8 2.53  25 2.54  18 2.55  37 2.56  20 2.61
                             6 2.65
  23  0.838  0.420  0.292-  58 2.45  54 2.50  28 2.51   9 2.51  35 2.55  19 2.56  12 2.56  20 2.56
                            51 2.57  15 2.57  39 2.60  25 2.61
  24  0.662  0.335  0.094-  21 2.41  10 2.47  36 2.48  57 2.56  50 2.56  38 2.57  13 2.58  51 2.61
                            19 2.63
  25  0.663  0.332  0.391-  14 2.48  11 2.49  20 2.52  37 2.54  22 2.54  58 2.55  39 2.57   9 2.58
                            23 2.61
  26  0.992  0.747  0.194-  19 2.40  46 2.45  15 2.45  33 2.48  38 2.48   1 2.50  35 2.55  48 2.57
                            40 2.58  42 2.59  27 2.63  28 2.63
  27  0.251  0.746  0.195-  15 2.44  16 2.45  31 2.48  29 2.52   2 2.52  62 2.53  28 2.55  41 2.55
                            48 2.56  30 2.57  26 2.63  42 2.63
  28  0.087  0.667  0.294-  23 2.51  54 2.51  32 2.52  43 2.52  41 2.54  27 2.55  40 2.55  30 2.55
                            15 2.55  35 2.57  39 2.59  26 2.63
  29  0.502  0.749  0.196-  16 2.47   3 2.47  17 2.48  33 2.49  27 2.52   2 2.52  44 2.52  30 2.54
                            59 2.55  34 2.57  61 2.58  62 2.58
  30  0.342  0.671  0.295-  63 2.44  60 2.49  41 2.50  18 2.50  61 2.51  34 2.51  32 2.52  29 2.54
                            28 2.55  16 2.57  27 2.57  54 2.59
  31  0.164  0.589  0.099-  15 2.45  42 2.46  38 2.47  27 2.48  62 2.51  57 2.53  16 2.57  59 2.60
                            55 2.61
  32  0.167  0.576  0.389-  56 2.48  60 2.48  58 2.49  28 2.52  30 2.52  54 2.53  63 2.55  39 2.56
                            43 2.59
  33  0.748  0.749  0.192-  44 2.43  26 2.48  19 2.48  29 2.49  17 2.50  36 2.50  46 2.50   3 2.53
                             1 2.55  34 2.59  64 2.60  35 2.62
  34  0.590  0.671  0.295-  35 2.47  45 2.48  64 2.49  30 2.51  20 2.54  61 2.54  60 2.55  18 2.57
                            29 2.57  37 2.57  17 2.57  33 2.59
  35  0.835  0.670  0.295-  34 2.47  47 2.50  40 2.53  64 2.53  23 2.55  26 2.55  20 2.56  19 2.56
                            28 2.57  39 2.59  37 2.60  33 2.62
  36  0.672  0.585  0.096-  46 2.47  24 2.48  38 2.49  33 2.50  44 2.50  19 2.53  59 2.55  21 2.58
                            17 2.61
  37  0.667  0.585  0.395-  47 2.52  60 2.53  25 2.54  39 2.54  22 2.56  34 2.57  45 2.58  35 2.60
                            20 2.62
  38  0.919  0.587  0.098-  46 2.43  15 2.46  42 2.47  31 2.47  26 2.48  36 2.49  19 2.50  57 2.52
                            24 2.57
  39  0.918  0.584  0.394-  43 2.47  58 2.52  37 2.54  32 2.56  25 2.57  47 2.58  35 2.59  28 2.59
                            23 2.60
  40  0.086  0.919  0.292-   6 2.52   1 2.52  35 2.53  48 2.53   5 2.54  28 2.55  43 2.56  64 2.57
                            47 2.57  41 2.57   8 2.58  26 2.58
  41  0.340  0.917  0.292-  63 2.47  61 2.49  30 2.50   2 2.50  28 2.54   9 2.55  27 2.55   6 2.55
                            11 2.56  40 2.57  48 2.58  43 2.64
  42  0.163  0.832  0.095-  46 2.45  31 2.46  38 2.47   7 2.50  62 2.53  48 2.57  26 2.59  10 2.61
                            27 2.63
  43  0.162  0.830  0.392-  39 2.47  28 2.52   8 2.54  63 2.54  47 2.54  40 2.56  11 2.58  32 2.59
                            41 2.64
  44  0.669  0.831  0.100-  33 2.43   3 2.46  52 2.50  36 2.50  59 2.51  29 2.52  46 2.54  13 2.56
                            62 2.59
  45  0.662  0.837  0.389-  61 2.45  34 2.48  63 2.48  14 2.52  60 2.53  53 2.53  47 2.55  64 2.56
                            37 2.58
  46  0.919  0.827  0.098-  38 2.43  26 2.45  42 2.45  36 2.47  33 2.50   7 2.54  44 2.54   1 2.56
                            52 2.57
  47  0.914  0.836  0.390-  35 2.50   8 2.51  53 2.52  37 2.52  64 2.54  43 2.54  45 2.55  40 2.57
                            39 2.58
  48  0.249  0.998  0.194-   1 2.51   2 2.53  40 2.53   6 2.54  50 2.55   7 2.55  27 2.56  42 2.57
                            26 2.57  41 2.58   4 2.58  10 2.60
  49  0.001  0.250  0.195-  12 2.49   4 2.49  54 2.50   1 2.54   5 2.54  51 2.55  55 2.56  52 2.57
                            16 2.58  57 2.58   3 2.59  15 2.63
  50  0.499  0.252  0.194-  21 2.49   6 2.52  51 2.53   4 2.54  17 2.54  48 2.55  10 2.55   9 2.56
                            24 2.56   2 2.58  20 2.58  19 2.60
  51  0.749  0.251  0.194-   9 2.47  50 2.53  57 2.54  13 2.54  12 2.54   3 2.54  49 2.55   2 2.55
                            19 2.57  23 2.57  15 2.60  24 2.61
  52  0.914  0.079  0.097-  44 2.50  13 2.52   3 2.53   7 2.55   1 2.56  49 2.57  46 2.57  55 2.59
                            57 2.59
  53  0.914  0.086  0.387-   5 2.49  12 2.50  56 2.50  64 2.50  58 2.50  14 2.51  47 2.52  45 2.53
                             8 2.55
  54  0.084  0.417  0.290-  23 2.50  49 2.50  58 2.51  28 2.51  18 2.51  16 2.51   5 2.52  12 2.52
                            32 2.53  56 2.54  15 2.57  30 2.59
  55  0.171  0.334  0.097-   4 2.51  59 2.52   7 2.55  49 2.56  21 2.56  16 2.58  52 2.59  57 2.59
                            31 2.61
  56  0.164  0.329  0.387-  18 2.45   5 2.45  32 2.48  53 2.50  22 2.50   8 2.51  58 2.52  54 2.54
                            60 2.56
  57  0.916  0.336  0.096-  38 2.52  31 2.53  13 2.54  51 2.54  24 2.56  15 2.56  49 2.58  55 2.59
                            52 2.59
  58  0.917  0.334  0.385-  23 2.45  32 2.49  14 2.50  53 2.50  54 2.51  12 2.51  39 2.52  56 2.52
                            25 2.55
  59  0.419  0.585  0.097-  44 2.51  55 2.52  17 2.53  16 2.54  29 2.55  62 2.55  36 2.55  31 2.60
                            21 2.61
  60  0.416  0.583  0.391-  18 2.48  32 2.48  30 2.49  22 2.50  45 2.53  37 2.53  63 2.54  34 2.55
                            56 2.56
  61  0.589  0.921  0.294-  45 2.45  64 2.48  41 2.49  12 2.50   9 2.50  30 2.51  63 2.52  14 2.53
                            34 2.54   3 2.55   2 2.57  29 2.58
  62  0.415  0.834  0.097-   2 2.51  31 2.51  10 2.52  27 2.53  42 2.53  13 2.54  59 2.55  29 2.58
                            44 2.59
  63  0.415  0.833  0.388-  30 2.44  41 2.47  45 2.48  61 2.52  43 2.54  60 2.54  32 2.55  11 2.55
                            14 2.57
  64  0.833  0.920  0.292-  12 2.47  61 2.48  34 2.49  53 2.50   5 2.51  35 2.53   1 2.54  47 2.54
                            45 2.56  40 2.57   3 2.57  33 2.60
 

IMPORTANT INFORMATION: All symmetrisations will be switched off!
NOSYMM: (Re-)initialisation of all symmetry stuff for point group C_1.

 
 

Automatic generation of k-mesh.
 generate k-points for:    3    3    1
Space group operators:
 irot       det(A)        alpha          n_x          n_y          n_z        tau_x        tau_y        tau_z
    1     1.000000     0.000000     1.000000     0.000000     0.000000     0.000000     0.000000     0.000000
 
 Subroutine IBZKPT returns following result:
 ===========================================
 
 Found      5 irreducible k-points:
 
 Following reciprocal coordinates:
            Coordinates               Weight
  0.000000  0.000000  0.000000      1.000000
  0.333333  0.000000  0.000000      2.000000
  0.000000  0.333333  0.000000      2.000000
  0.333333  0.333333  0.000000      2.000000
 -0.333333  0.333333  0.000000      2.000000
 
 Following cartesian coordinates:
            Coordinates               Weight
  0.000000  0.000000  0.000000      1.000000
  0.032965  0.019033  0.000000      2.000000
  0.000000  0.038065  0.000000      2.000000
  0.032965  0.057098  0.000000      2.000000
 -0.032965  0.019033  0.000000      2.000000
 
 TETIRR: Found     24 inequivalent tetrahedra from       54


--------------------------------------------------------------------------------------------------------




 Dimension of arrays:
   k-points           NKPTS =      5   k-points in BZ     NKDIM =      5   number of bands    NBANDS=    408
   number of dos      NEDOS =    301   number of ions     NIONS =     64
   non local maximal  LDIM  =      6   non local SUM 2l+1 LMDIM =     18
   total plane-waves  NPLWV = ******
   max r-space proj   IRMAX =   8251   max aug-charges    IRDMAX=  19525
   dimension x,y,z NGX =    80 NGY =   80 NGZ =  160
   dimension x,y,z NGXF=   160 NGYF=  160 NGZF=  320
   support grid    NGXF=   160 NGYF=  160 NGZF=  320
   ions per type =              47  17
   NGX,Y,Z   is equivalent  to a cutoff of  13.15, 13.15, 12.48 a.u.
   NGXF,Y,Z  is equivalent  to a cutoff of  26.31, 26.31, 24.96 a.u.

 SYSTEM =  SQS-NiFe                                
 POSCAR =  POSCAR                                  

 Startparameter for this run:
   NWRITE =      2    write-flag & timer
   PREC   = accura    normal or accurate (medium, high low for compatibility)
   ISTART =      0    job   : 0-new  1-cont  2-samecut
   ICHARG =      1    charge: 1-file 2-atom 10-const
   ISPIN  =      2    spin polarized calculation?
   LNONCOLLINEAR =      F non collinear calculations
   LSORBIT =      F    spin-orbit coupling
   INIWAV =      1    electr: 0-lowe 1-rand  2-diag
   LASPH  =      F    aspherical Exc in radial PAW
   METAGGA=      F    non-selfconsistent MetaGGA calc.

 Electronic Relaxation 1
   ENCUT  =  520.0 eV  38.22 Ry    6.18 a.u.  18.80 18.80 39.63*2*pi/ulx,y,z
   ENINI  =  520.0     initial cutoff
   ENAUG  =  544.6 eV  augmentation charge cutoff
   NELM   =    200;   NELMIN=  2; NELMDL= -5     # of ELM steps 
   EDIFF  = 0.1E-05   stopping-criterion for ELM
   LREAL  =      T    real-space projection
   NLSPLINE    = F    spline interpolate recip. space projectors
   LCOMPAT=      F    compatible to vasp.4.4
   GGA_COMPAT  = T    GGA compatible to vasp.4.4-vasp.4.6
   LMAXPAW     = -100 max onsite density
   LMAXMIX     =    2 max onsite mixed and CHGCAR
   VOSKOWN=      0    Vosko Wilk Nusair interpolation
   ROPT   =   -0.00025  -0.00025
 Ionic relaxation
   EDIFFG = -.2E-01   stopping-criterion for IOM
   NSW    =      0    number of steps for IOM
   NBLOCK =      1;   KBLOCK =      1    inner block; outer block 
   IBRION =     -1    ionic relax: 0-MD 1-quasi-New 2-CG
   NFREE  =      0    steps in history (QN), initial steepest desc. (CG)
   ISIF   =      2    stress and relaxation
   IWAVPR =     10    prediction:  0-non 1-charg 2-wave 3-comb
   ISYM   =      0    0-nonsym 1-usesym 2-fastsym
   LCORR  =      T    Harris-Foulkes like correction to forces

   POTIM  = 0.5000    time-step for ionic-motion
   TEIN   =    0.0    initial temperature
   TEBEG  =    0.0;   TEEND  =   0.0 temperature during run
   SMASS  =  -3.00    Nose mass-parameter (am)
   estimated Nose-frequenzy (Omega)   =  0.10E-29 period in steps =****** mass=  -0.234E-26a.u.
   SCALEE = 1.0000    scale energy and forces
   NPACO  =    256;   APACO  = 16.0  distance and # of slots for P.C.
   PSTRESS=    0.0 pullay stress

  Mass of Ions in am
   POMASS =  55.85 58.69
  Ionic Valenz
   ZVAL   =   8.00 10.00
  Atomic Wigner-Seitz radii
   RWIGS  =  -1.00 -1.00
  virtual crystal weights 
   VCA    =   1.00  1.00
   NELECT =     546.0000    total number of electrons
   NUPDOWN=      -1.0000    fix difference up-down

 DOS related values:
   EMIN   =  10.00;   EMAX   =-10.00  energy-range for DOS
   EFERMI =   0.00
   ISMEAR =    -5;   SIGMA  =   0.20  broadening in eV -4-tet -1-fermi 0-gaus

 Electronic relaxation 2 (details)
   IALGO  =     68    algorithm
   LDIAG  =      T    sub-space diagonalisation (order eigenvalues)
   LSUBROT=      F    optimize rotation matrix (better conditioning)
   TURBO    =      0    0=normal 1=particle mesh
   IRESTART =      0    0=no restart 2=restart with 2 vectors
   NREBOOT  =      0    no. of reboots
   NMIN     =      0    reboot dimension
   EREF     =   0.00    reference energy to select bands
   IMIX   =      4    mixing-type and parameters
     AMIX     =   0.40;   BMIX     =  1.00
     AMIX_MAG =   1.60;   BMIX_MAG =  1.00
     AMIN     =   0.10
     WC   =   100.;   INIMIX=   1;  MIXPRE=   1;  MAXMIX= -45

 Intra band minimization:
   WEIMIN = 0.0000     energy-eigenvalue tresh-hold
   EBREAK =  0.61E-09  absolut break condition
   DEPER  =   0.30     relativ break condition  

   TIME   =   0.40     timestep for ELM

  volume/ion in A,a.u.               =      29.49       199.00
  Fermi-wavevector in a.u.,A,eV,Ry     =   1.082752  2.046105 15.950816  1.172352
  Thomas-Fermi vector in A             =   2.218801
 
 Write flags
   LWAVE        =      F    write WAVECAR
   LDOWNSAMPLE  =      F    k-point downsampling of WAVECAR
   LCHARG       =      T    write CHGCAR
   LVTOT        =      F    write LOCPOT, total local potential
   LVHAR        =      F    write LOCPOT, Hartree potential only
   LELF         =      F    write electronic localiz. function (ELF)
   LORBIT       =     11    0 simple, 1 ext, 2 COOP (PROOUT), +10 PAW based schemes


 Dipole corrections
   LMONO  =      F    monopole corrections only (constant potential shift)
   LDIPOL =      T    correct potential (dipole corrections)
   IDIPOL =      3    1-x, 2-y, 3-z, 4-all directions 
   EPSILON=  1.0000000 bulk dielectric constant

 Exchange correlation treatment:
   GGA     =    --    GGA type
   LEXCH   =     8    internal setting for exchange type
   VOSKOWN=      0    Vosko Wilk Nusair interpolation
   LHFCALC =     F    Hartree Fock is set to
   LHFONE  =     F    Hartree Fock one center treatment
   AEXX    =    0.0000 exact exchange contribution

 Linear response parameters
   LEPSILON=     F    determine dielectric tensor
   LRPA    =     F    only Hartree local field effects (RPA)
   LNABLA  =     F    use nabla operator in PAW spheres
   LVEL    =     F    velocity operator in full k-point grid
   LINTERFAST=   F  fast interpolation
   KINTER  =     0    interpolate to denser k-point grid
   CSHIFT  =0.1000    complex shift for real part using Kramers Kronig
   OMEGAMAX=  -1.0    maximum frequency
   DEG_THRESHOLD= 0.2000000E-02 threshold for treating states as degnerate
   RTIME   =   -0.100 relaxation time in fs
  (WPLASMAI=    0.000 imaginary part of plasma frequency in eV, 0.658/RTIME)
   DFIELD  = 0.0000000 0.0000000 0.0000000 field for delta impulse in time
 
 Orbital magnetization related:
   ORBITALMAG=     F  switch on orbital magnetization
   LCHIMAG   =     F  perturbation theory with respect to B field
   DQ        =  0.001000  dq finite difference perturbation B field
   LLRAUG    =     F  two centre corrections for induced B field



--------------------------------------------------------------------------------------------------------


 Static calculation
 charge density and potential will be updated during run
 spin polarized calculation
 RMM-DIIS sequential band-by-band and
  variant of blocked Davidson during initial phase
 perform sub-space diagonalisation
    before iterative eigenvector-optimisation
 modified Broyden-mixing scheme, WC =      100.0
 initial mixing is a Kerker type mixing with AMIX =  0.4000 and BMIX =      1.0000
 Hartree-type preconditioning will be used
 using additional bands          135
 real space projection scheme for non local part
 use partial core corrections
 calculate Harris-corrections to forces 
   (improved forces if not selfconsistent)
 use gradient corrections 
 use of overlap-Matrix (Vanderbilt PP)
 Fermi weights with tetrahedron method with Bloechl corrections


--------------------------------------------------------------------------------------------------------


  energy-cutoff  :      520.00
  volume of cell :     1887.25
      direct lattice vectors                 reciprocal lattice vectors
    10.111630000  0.000000000  0.000000000     0.098896024  0.057097646  0.000000000
    -5.055815000  8.756928450  0.000000000     0.000000000  0.114195292  0.000000000
     0.000000000  0.000000000 21.313618150     0.000000000  0.000000000  0.046918360

  length of vectors
    10.111630000 10.111629997 21.313618150     0.114195292  0.114195292  0.046918360


 
 k-points in units of 2pi/SCALE and weight: read from INCAR                         
   0.00000000  0.00000000  0.00000000       0.111
   0.03296534  0.01903255  0.00000000       0.222
   0.00000000  0.03806510  0.00000000       0.222
   0.03296534  0.05709765  0.00000000       0.222
  -0.03296534  0.01903255  0.00000000       0.222
 
 k-points in reciprocal lattice and weights: read from INCAR                         
   0.00000000  0.00000000  0.00000000       0.111
   0.33333333  0.00000000  0.00000000       0.222
   0.00000000  0.33333333  0.00000000       0.222
   0.33333333  0.33333333  0.00000000       0.222
  -0.33333333  0.33333333  0.00000000       0.222
 
 position of ions in fractional coordinates (direct lattice) 
   0.00194700  0.99920000  0.19504711
   0.49880600  0.99647600  0.19436468
   0.74316000  0.99645900  0.19265379
   0.24913600  0.25322600  0.19502823
   0.08272449  0.16774674  0.29339966
   0.33531437  0.16735577  0.29088626
   0.16766300  0.08094400  0.09476087
   0.16493434  0.08233413  0.39265750
   0.59152171  0.16986182  0.29019656
   0.42207800  0.08742500  0.09459963
   0.41540814  0.08641663  0.38963823
   0.83695021  0.16636832  0.28994309
   0.66737600  0.08327700  0.09665914
   0.66778368  0.08873198  0.39023189
   0.00320800  0.51090900  0.19273630
   0.25586900  0.50577700  0.19556308
   0.49960200  0.50304900  0.19575715
   0.33316951  0.41947420  0.29589146
   0.75679100  0.50804300  0.19452824
   0.58278318  0.41605103  0.29403079
   0.42032800  0.32671800  0.09530328
   0.41289162  0.33406473  0.39458799
   0.83821311  0.42007972  0.29224465
   0.66249300  0.33542400  0.09383672
   0.66313604  0.33207732  0.39119879
   0.99180600  0.74702800  0.19393325
   0.25104600  0.74563900  0.19525367
   0.08731166  0.66699607  0.29395879
   0.50153700  0.74905700  0.19574495
   0.34189891  0.67116886  0.29502427
   0.16407000  0.58904200  0.09862191
   0.16726943  0.57603288  0.38888129
   0.74777500  0.74863100  0.19226885
   0.59007253  0.67051867  0.29495862
   0.83459116  0.67007801  0.29467697
   0.67214400  0.58529400  0.09617600
   0.66742481  0.58513840  0.39545387
   0.91907500  0.58733100  0.09791739
   0.91841290  0.58412047  0.39396727
   0.08644653  0.91880587  0.29216034
   0.34025398  0.91719920  0.29200775
   0.16274300  0.83153600  0.09454501
   0.16166734  0.82961935  0.39169686
   0.66878300  0.83083000  0.09953909
   0.66184460  0.83682111  0.38886378
   0.91852300  0.82706000  0.09806963
   0.91382838  0.83647976  0.38989718
   0.24916500  0.99813100  0.19381878
   0.00129700  0.24974200  0.19480424
   0.49933100  0.25162700  0.19359363
   0.74944200  0.25071300  0.19395097
   0.91424100  0.07929400  0.09685844
   0.91429312  0.08552795  0.38732131
   0.08409159  0.41736363  0.28993421
   0.17077300  0.33437100  0.09693223
   0.16380647  0.32948078  0.38734897
   0.91567000  0.33646400  0.09645316
   0.91652895  0.33416464  0.38531459
   0.41923600  0.58471500  0.09724687
   0.41628744  0.58288618  0.39087148
   0.58870570  0.92088247  0.29386585
   0.41467000  0.83428900  0.09748597
   0.41467461  0.83348278  0.38805031
   0.83327574  0.91981444  0.29170636
 
 position of ions in cartesian coordinates  (Angst):
  -5.03208300  8.74992291  4.15715962
   0.00574341  8.72606903  4.14261457
   2.47664659  8.72592017  4.10614932
   1.23890724  2.21748196  4.15675722
  -0.01161702  1.46894622  6.25340836
   2.54445504  1.46552254  6.19983871
   1.28610833  0.70882082  2.01969700
   1.25148893  0.72099409  8.36895195
   5.12245877  1.48746778  6.18513866
   3.82589194  0.76557447  2.01626039
   3.76354689  0.75674425  8.30460038
   7.62180344  1.45687547  6.17973640
   6.32722608  0.72925073  2.06015600
   6.30376902  0.77701956  8.31725347
  -2.55062328  4.47399356  4.10790790
   0.03013771  4.42905300  4.16815681
   2.50846789  4.40516410  4.17229315
   1.24810283  3.67330552  6.30651763
   5.08381916  4.44889620  4.14610063
   3.78941085  3.64332908  6.26686002
   2.59837545  2.86104615  2.03125772
   2.48603780  2.92538093  8.41009771
   6.35185550  3.67860801  6.22879085
   5.00304240  2.93728397  2.00000002
   5.02646479  2.90797737  8.33786154
   6.25193994  6.54167075  4.13341924
  -1.23132858  6.52950737  4.16156216
  -2.48934551  5.84083688  6.26532532
   1.28426296  6.55943855  4.17203312
   0.06384965  5.87737771  6.28803461
  -1.31907225  5.15819865  2.10198973
  -1.22094907  5.04427872  8.28846741
   3.77628428  6.55570810  4.09794485
   2.57657672  5.87168401  6.28663544
   5.05128656  5.86782516  6.28063238
   3.83733325  5.12537768  2.04985854
   3.79040128  5.12401507  8.42855269
   6.32390946  5.14321554  2.08697386
   6.33344641  5.11510115  8.39686798
  -3.77119720  8.04591723  6.22699388
  -1.19666707  8.03184774  6.22374172
  -2.55849518  7.28170126  2.01509624
  -2.55968165  7.26491728  8.34847720
   2.56196347  7.27551886  2.12153816
   2.46151503  7.32798258  8.28809404
   5.10630237  7.24250524  2.09021865
   5.01120754  7.32499339  8.31011952
  -2.52690139  8.74056175  4.13097947
  -1.24953457  2.18697282  4.15198319
   3.77687076  2.20347964  4.12618071
   6.31052166  2.19547580  4.13379691
   8.84357093  0.69437188  2.06440380
   8.81258022  0.74896211  8.25521842
  -1.25981024  3.65482341  6.17954704
   0.03627547  2.92806292  2.06597654
  -0.00944350  2.88523963  8.25580807
   7.55781650  2.94639117  2.05576582
   7.57812697  2.92625586  8.21244805
   1.28294845  5.12030742  2.07268265
   1.26237982  5.10429260  8.33088537
   1.29696282  8.06410189  6.26334461
  -0.02502123  7.30580908  2.07777874
  -0.02089844  7.29874903  8.27075619
   3.77536439  8.05474920  6.21731796
 


--------------------------------------------------------------------------------------------------------


 k-point  1 :   0.0000 0.0000 0.0000  plane waves:   50797
 k-point  2 :   0.3333 0.0000 0.0000  plane waves:   50810
 k-point  3 :   0.0000 0.3333 0.0000  plane waves:   50810
 k-point  4 :   0.3333 0.3333 0.0000  plane waves:   50829
 k-point  5 :  -0.3333 0.3333 0.0000  plane waves:   50810

 maximum and minimum number of plane-waves per node :      2135     2096

 maximum number of plane-waves:     50829
 maximum index in each direction: 
   IXMAX=   19   IYMAX=   18   IZMAX=   39
   IXMIN=  -19   IYMIN=  -19   IZMIN=  -39


 real space projection operators:
  total allocation   :      68531.91 KBytes
  max/ min on nodes  :       3466.83       2507.91


 parallel 3D FFT for wavefunctions:
    minimum data exchange during FFTs selected (reduces bandwidth)
 parallel 3D FFT for charge:
    minimum data exchange during FFTs selected (reduces bandwidth)


 total amount of memory used by VASP MPI-rank0   113567. kBytes
=======================================================================

   base      :      30000. kBytes
   nonlr-proj:      13158. kBytes
   fftplans  :       6403. kBytes
   grid      :      16455. kBytes
   one-center:         93. kBytes
   wavefun   :      47458. kBytes
 
     INWAV:  cpu time    0.0000: real time    0.0001
 Broyden mixing: mesh for mixing (old mesh)
   NGX = 37   NGY = 37   NGZ = 79
  (NGX  =160   NGY  =160   NGZ  =320)
  gives a total of 108151 points

 initial charge density was supplied:
 number of electron     545.9999926 magnetization     135.4079316
 keeping initial charge density in first step


--------------------------------------------------------------------------------------------------------


 Maximum index for non-local projection operator          764
 Maximum index for augmentation-charges         1127 (set IRDMAX)


--------------------------------------------------------------------------------------------------------


 First call to EWALD:  gamma=   0.143
 Maximum number of real-space cells 4x 4x 2
 Maximum number of reciprocal cells 2x 2x 4

    FEWALD:  cpu time    0.0030: real time    0.0027


--------------------------------------- Iteration      1(   1)  ---------------------------------------


    POTLOK:  cpu time    0.2480: real time    0.2530
    SETDIJ:  cpu time    0.0180: real time    0.0199
     EDDAV:  cpu time   24.2983: real time   24.3428
 BZINTS: Fermi energy: 10.449366;546.000000 electrons
         Band energy:3427.488425;  BLOECHL correction: -0.009163
       DOS:  cpu time    0.0450: real time    0.0451
    --------------------------------------------
      LOOP:  cpu time   24.6093: real time   24.6608

 eigenvalue-minimisations  :  8160
 total energy-change (2. order) : 0.4335999E+04  (-0.2297836E+05)
 number of electron     545.9999926 magnetization     135.4079316
 augmentation part      545.9999926 magnetization     135.4079316

 DIPCOR: dipole corrections for dipol
 direction  3 min pos   245,
 dipolmoment           0.000000      0.000000      0.001629 electrons x Angstroem
 Tr[quadrupol]     -9240.317141

 energy correction for charged system         0.000000 eV
 dipol+quadrupol energy correction           -0.000000 eV
 added-field ion interaction          0.034932 eV  (added to PSCEN)


 Free energy of the ion-electron system (eV)
  ---------------------------------------------------
  alpha Z        PSCENC =      1425.58488177
  Ewald energy   TEWEN  =    164298.40388444
  -Hartree energ DENC   =   -210204.15433002
  -exchange      EXHF   =         0.00000000
  -V(xc)+E(xc)   XCENC  =       726.78300968
  PAW double counting   =     51749.08142999   -53340.28983475
  entropy T*S    EENTRO =         0.00000000
  eigenvalues    EBANDS =      3427.48842457
  atomic energy  EATOM  =     46253.10162290
  Solvation  Ediel_sol  =         0.00000000
  ---------------------------------------------------
  free energy    TOTEN  =      4335.99908858 eV

  energy without entropy =     4335.99908858  energy(sigma->0) =     4335.99908858


--------------------------------------------------------------------------------------------------------




--------------------------------------- Iteration      1(   2)  ---------------------------------------


     EDDAV:  cpu time   24.3173: real time   24.3847
 BZINTS: Fermi energy:  0.822975;546.000000 electrons
         Band energy:-972.594659;  BLOECHL correction: -0.005615
       DOS:  cpu time    0.0390: real time    0.0391
    --------------------------------------------
      LOOP:  cpu time   24.3563: real time   24.4238

 eigenvalue-minimisations  :  8160
 total energy-change (2. order) :-0.4400083E+04  (-0.4092397E+04)
 number of electron     545.9999926 magnetization     135.4079316
 augmentation part      545.9999926 magnetization     135.4079316

 DIPCOR: dipole corrections for dipol
 direction  3 min pos   245,
 dipolmoment           0.000000      0.000000      0.001629 electrons x Angstroem
 Tr[quadrupol]     -9240.317141

 energy correction for charged system         0.000000 eV
 dipol+quadrupol energy correction           -0.000000 eV
 added-field ion interaction          0.034932 eV  (added to PSCEN)


 Free energy of the ion-electron system (eV)
  ---------------------------------------------------
  alpha Z        PSCENC =      1425.58488177
  Ewald energy   TEWEN  =    164298.40388444
  -Hartree energ DENC   =   -210204.15433002
  -exchange      EXHF   =         0.00000000
  -V(xc)+E(xc)   XCENC  =       726.78300968
  PAW double counting   =     51749.08142999   -53340.28983475
  entropy T*S    EENTRO =         0.00000000
  eigenvalues    EBANDS =      -972.59465886
  atomic energy  EATOM  =     46253.10162290
  Solvation  Ediel_sol  =         0.00000000
  ---------------------------------------------------
  free energy    TOTEN  =       -64.08399485 eV

  energy without entropy =      -64.08399485  energy(sigma->0) =      -64.08399485


--------------------------------------------------------------------------------------------------------




--------------------------------------- Iteration      1(   3)  ---------------------------------------


     EDDAV:  cpu time   25.0772: real time   25.1744
 BZINTS: Fermi energy: -0.227619;546.000000 electrons
         Band energy:***********;  BLOECHL correction: -0.021510
       DOS:  cpu time    0.0420: real time    0.0411
    --------------------------------------------
      LOOP:  cpu time   25.1192: real time   25.2155

 eigenvalue-minimisations  :  8520
 total energy-change (2. order) :-0.3737384E+03  (-0.3181562E+03)
 number of electron     545.9999926 magnetization     135.4079316
 augmentation part      545.9999926 magnetization     135.4079316

 DIPCOR: dipole corrections for dipol
 direction  3 min pos   245,
 dipolmoment           0.000000      0.000000      0.001629 electrons x Angstroem
 Tr[quadrupol]     -9240.317141

 energy correction for charged system         0.000000 eV
 dipol+quadrupol energy correction           -0.000000 eV
 added-field ion interaction          0.034932 eV  (added to PSCEN)


 Free energy of the ion-electron system (eV)
  ---------------------------------------------------
  alpha Z        PSCENC =      1425.58488177
  Ewald energy   TEWEN  =    164298.40388444
  -Hartree energ DENC   =   -210204.15433002
  -exchange      EXHF   =         0.00000000
  -V(xc)+E(xc)   XCENC  =       726.78300968
  PAW double counting   =     51749.08142999   -53340.28983475
  entropy T*S    EENTRO =         0.00000000
  eigenvalues    EBANDS =     -1346.33301366
  atomic energy  EATOM  =     46253.10162290
  Solvation  Ediel_sol  =         0.00000000
  ---------------------------------------------------
  free energy    TOTEN  =      -437.82234965 eV

  energy without entropy =     -437.82234965  energy(sigma->0) =     -437.82234965


--------------------------------------------------------------------------------------------------------




--------------------------------------- Iteration      1(   4)  ---------------------------------------


     EDDAV:  cpu time   25.4641: real time   25.5194
 BZINTS: Fermi energy: -0.263603;546.000000 electrons
         Band energy:***********;  BLOECHL correction: -0.023283
       DOS:  cpu time    0.0400: real time    0.0404
    --------------------------------------------
      LOOP:  cpu time   25.5041: real time   25.5597

 eigenvalue-minimisations  :  8724
 total energy-change (2. order) :-0.1510849E+02  (-0.1472892E+02)
 number of electron     545.9999926 magnetization     135.4079316
 augmentation part      545.9999926 magnetization     135.4079316

 DIPCOR: dipole corrections for dipol
 direction  3 min pos   245,
 dipolmoment           0.000000      0.000000      0.001629 electrons x Angstroem
 Tr[quadrupol]     -9240.317141

 energy correction for charged system         0.000000 eV
 dipol+quadrupol energy correction           -0.000000 eV
 added-field ion interaction          0.034932 eV  (added to PSCEN)


 Free energy of the ion-electron system (eV)
  ---------------------------------------------------
  alpha Z        PSCENC =      1425.58488177
  Ewald energy   TEWEN  =    164298.40388444
  -Hartree energ DENC   =   -210204.15433002
  -exchange      EXHF   =         0.00000000
  -V(xc)+E(xc)   XCENC  =       726.78300968
  PAW double counting   =     51749.08142999   -53340.28983475
  entropy T*S    EENTRO =         0.00000000
  eigenvalues    EBANDS =     -1361.44150322
  atomic energy  EATOM  =     46253.10162290
  Solvation  Ediel_sol  =         0.00000000
  ---------------------------------------------------
  free energy    TOTEN  =      -452.93083921 eV

  energy without entropy =     -452.93083921  energy(sigma->0) =     -452.93083921


--------------------------------------------------------------------------------------------------------




--------------------------------------- Iteration      1(   5)  ---------------------------------------


     EDDAV:  cpu time   26.5530: real time   26.6201
 BZINTS: Fermi energy: -0.264341;546.000000 electrons
         Band energy:***********;  BLOECHL correction: -0.023309
       DOS:  cpu time    0.0420: real time    0.0420
    CHARGE:  cpu time    0.7119: real time    0.7122
    MIXING:  cpu time    0.0050: real time    0.0045
    --------------------------------------------
      LOOP:  cpu time   27.3118: real time   27.3789

 eigenvalue-minimisations  :  9246
 total energy-change (2. order) :-0.2628692E+00  (-0.2625632E+00)
 number of electron     545.9999927 magnetization     135.3539846
 augmentation part      301.0167406 magnetization     109.7833921

 DIPCOR: dipole corrections for dipol
 direction  3 min pos   245,
 dipolmoment           0.000000      0.000000      0.001629 electrons x Angstroem
 Tr[quadrupol]     -9240.317141

 energy correction for charged system         0.000000 eV
 dipol+quadrupol energy correction           -0.000000 eV
 added-field ion interaction          0.034932 eV  (added to PSCEN)


 Broyden mixing:
  rms(total) = 0.62853E-01    rms(broyden)= 0.62783E-01
  rms(prec ) = 0.65594E-01
  weight for this iteration     100.00

 Free energy of the ion-electron system (eV)
  ---------------------------------------------------
  alpha Z        PSCENC =      1425.58488177
  Ewald energy   TEWEN  =    164298.40388444
  -Hartree energ DENC   =   -210204.15433002
  -exchange      EXHF   =         0.00000000
  -V(xc)+E(xc)   XCENC  =       726.78300968
  PAW double counting   =     51749.08142999   -53340.28983475
  entropy T*S    EENTRO =         0.00000000
  eigenvalues    EBANDS =     -1361.70437239
  atomic energy  EATOM  =     46253.10162290
  Solvation  Ediel_sol  =         0.00000000
  ---------------------------------------------------
  free energy    TOTEN  =      -453.19370838 eV

  energy without entropy =     -453.19370838  energy(sigma->0) =     -453.19370838


--------------------------------------------------------------------------------------------------------




--------------------------------------- Iteration      1(   6)  ---------------------------------------


    POTLOK:  cpu time    0.2460: real time    0.2474
    SETDIJ:  cpu time    0.0190: real time    0.0178
    EDDIAG:  cpu time    3.6564: real time    3.6618
  RMM-DIIS:  cpu time   15.1837: real time   15.2116
    ORTHCH:  cpu time    0.6639: real time    0.6653
 BZINTS: Fermi energy: -0.266398;546.000000 electrons
         Band energy:***********;  BLOECHL correction: -0.023405
       DOS:  cpu time    0.0400: real time    0.0404
    CHARGE:  cpu time    0.7259: real time    0.7270
    MIXING:  cpu time    0.0050: real time    0.0044
    --------------------------------------------
      LOOP:  cpu time   20.5399: real time   20.5757

 eigenvalue-minimisations  :  8398
 total energy-change (2. order) :-0.1307633E+00  (-0.1642278E-01)
 number of electron     545.9999926 magnetization     135.3470269
 augmentation part      300.9846592 magnetization     109.6286323

 DIPCOR: dipole corrections for dipol
 direction  3 min pos   238,
 dipolmoment           0.000000      0.000000     -0.011213 electrons x Angstroem
 Tr[quadrupol]     -9240.250948

 energy correction for charged system         0.000000 eV
 dipol+quadrupol energy correction           -0.000006 eV
 added-field ion interaction          0.033211 eV  (added to PSCEN)


 Broyden mixing:
  rms(total) = 0.21256E+00    rms(broyden)= 0.21255E+00
  rms(prec ) = 0.24909E+00
  weight for this iteration     100.00

 eigenvalues of (default mixing * dielectric matrix)
  average eigenvalue GAMMA=   0.1934
  0.1934

 Free energy of the ion-electron system (eV)
  ---------------------------------------------------
  alpha Z        PSCENC =      1425.58315522
  Ewald energy   TEWEN  =    164298.40388444
  -Hartree energ DENC   =   -210202.80167824
  -exchange      EXHF   =         0.00000000
  -V(xc)+E(xc)   XCENC  =       726.51919957
  PAW double counting   =     51779.38853024   -53370.45867008
  entropy T*S    EENTRO =         0.00000000
  eigenvalues    EBANDS =     -1363.06051569
  atomic energy  EATOM  =     46253.10162290
  Solvation  Ediel_sol  =         0.00000000
  ---------------------------------------------------
  free energy    TOTEN  =      -453.32447164 eV

  energy without entropy =     -453.32447164  energy(sigma->0) =     -453.32447164


--------------------------------------------------------------------------------------------------------




--------------------------------------- Iteration      1(   7)  ---------------------------------------


    POTLOK:  cpu time    0.2440: real time    0.2458
    SETDIJ:  cpu time    0.0190: real time    0.0179
    EDDIAG:  cpu time    3.5795: real time    3.5845
  RMM-DIIS:  cpu time   16.6035: real time   16.8043
    ORTHCH:  cpu time    0.6319: real time    0.6333
 BZINTS: Fermi energy: -0.263011;546.000000 electrons
         Band energy:***********;  BLOECHL correction: -0.023226
       DOS:  cpu time    0.0400: real time    0.0390
    CHARGE:  cpu time    0.7059: real time    0.7283
    MIXING:  cpu time    0.0050: real time    0.0044
    --------------------------------------------
      LOOP:  cpu time   21.8287: real time   22.0576

 eigenvalue-minimisations  :  9269
 total energy-change (2. order) : 0.1064473E-01  (-0.3631261E-02)
 number of electron     545.9999927 magnetization     135.3391649
 augmentation part      300.9422220 magnetization     109.6694291

 DIPCOR: dipole corrections for dipol
 direction  3 min pos   240,
 dipolmoment           0.000000      0.000000      0.022545 electrons x Angstroem
 Tr[quadrupol]     -9240.328136

 energy correction for charged system         0.000000 eV
 dipol+quadrupol energy correction           -0.000024 eV
 added-field ion interaction          0.090459 eV  (added to PSCEN)


 Broyden mixing:
  rms(total) = 0.13040E+00    rms(broyden)= 0.13039E+00
  rms(prec ) = 0.18964E+00
  weight for this iteration     100.00

 eigenvalues of (default mixing * dielectric matrix)
  average eigenvalue GAMMA=   0.2085
  0.3215  0.0956

 Free energy of the ion-electron system (eV)
  ---------------------------------------------------
  alpha Z        PSCENC =      1425.64038524
  Ewald energy   TEWEN  =    164298.40388444
  -Hartree energ DENC   =   -210205.25969392
  -exchange      EXHF   =         0.00000000
  -V(xc)+E(xc)   XCENC  =       726.52958665
  PAW double counting   =     51781.18749041   -53372.27221102
  entropy T*S    EENTRO =         0.00000000
  eigenvalues    EBANDS =     -1360.64489162
  atomic energy  EATOM  =     46253.10162290
  Solvation  Ediel_sol  =         0.00000000
  ---------------------------------------------------
  free energy    TOTEN  =      -453.31382692 eV

  energy without entropy =     -453.31382692  energy(sigma->0) =     -453.31382692


--------------------------------------------------------------------------------------------------------




--------------------------------------- Iteration      1(   8)  ---------------------------------------


    POTLOK:  cpu time    0.2430: real time    0.2450
    SETDIJ:  cpu time    0.0190: real time    0.0180
    EDDIAG:  cpu time    3.5895: real time    3.6383
  RMM-DIIS:  cpu time   17.4313: real time   17.6269
    ORTHCH:  cpu time    0.6969: real time    0.6994
 BZINTS: Fermi energy: -0.262585;546.000000 electrons
         Band energy:***********;  BLOECHL correction: -0.023235
       DOS:  cpu time    0.0400: real time    0.0398
    CHARGE:  cpu time    0.7239: real time    0.7255
    MIXING:  cpu time    0.0060: real time    0.0052
    --------------------------------------------
      LOOP:  cpu time   22.7495: real time   22.9981

 eigenvalue-minimisations  :  9778
 total energy-change (2. order) : 0.4703314E-02  (-0.1036844E-02)
 number of electron     545.9999927 magnetization     135.3100629
 augmentation part      300.9228415 magnetization     109.6537317

 DIPCOR: dipole corrections for dipol
 direction  3 min pos   239,
 dipolmoment           0.000000      0.000000     -0.011331 electrons x Angstroem
 Tr[quadrupol]     -9240.331730

 energy correction for charged system         0.000000 eV
 dipol+quadrupol energy correction           -0.000006 eV
 added-field ion interaction         -0.005952 eV  (added to PSCEN)


 Broyden mixing:
  rms(total) = 0.97506E-01    rms(broyden)= 0.97494E-01
  rms(prec ) = 0.13279E+00
  weight for this iteration     100.00

 eigenvalues of (default mixing * dielectric matrix)
  average eigenvalue GAMMA=   0.2706
  0.6085  0.1448  0.0584

 Free energy of the ion-electron system (eV)
  ---------------------------------------------------
  alpha Z        PSCENC =      1425.54399184
  Ewald energy   TEWEN  =    164298.40388444
  -Hartree energ DENC   =   -210205.50623101
  -exchange      EXHF   =         0.00000000
  -V(xc)+E(xc)   XCENC  =       726.51899438
  PAW double counting   =     51781.12230115   -53372.18605660
  entropy T*S    EENTRO =         0.00000000
  eigenvalues    EBANDS =     -1360.30763071
  atomic energy  EATOM  =     46253.10162290
  Solvation  Ediel_sol  =         0.00000000
  ---------------------------------------------------
  free energy    TOTEN  =      -453.30912360 eV

  energy without entropy =     -453.30912360  energy(sigma->0) =     -453.30912360


--------------------------------------------------------------------------------------------------------




--------------------------------------- Iteration      1(   9)  ---------------------------------------


    POTLOK:  cpu time    0.2460: real time    0.2463
    SETDIJ:  cpu time    0.0180: real time    0.0178
    EDDIAG:  cpu time    3.5815: real time    3.5879
  RMM-DIIS:  cpu time   15.2907: real time   15.5474
    ORTHCH:  cpu time    0.6129: real time    0.6194
 BZINTS: Fermi energy: -0.265808;546.000000 electrons
         Band energy:***********;  BLOECHL correction: -0.023300
       DOS:  cpu time    0.0390: real time    0.0381
    CHARGE:  cpu time    0.7559: real time    0.7628
    MIXING:  cpu time    0.0050: real time    0.0046
    --------------------------------------------
      LOOP:  cpu time   20.5489: real time   20.8243

 eigenvalue-minimisations  :  8531
 total energy-change (2. order) : 0.4951108E-02  (-0.3920469E-03)
 number of electron     545.9999927 magnetization     135.2937473
 augmentation part      300.9598348 magnetization     109.6178601

 DIPCOR: dipole corrections for dipol
 direction  3 min pos   239,
 dipolmoment           0.000000      0.000000      0.003905 electrons x Angstroem
 Tr[quadrupol]     -9240.306418

 energy correction for charged system         0.000000 eV
 dipol+quadrupol energy correction           -0.000001 eV
 added-field ion interaction          0.002051 eV  (added to PSCEN)


 Broyden mixing:
  rms(total) = 0.46449E-01    rms(broyden)= 0.46443E-01
  rms(prec ) = 0.52655E-01
  weight for this iteration     100.00

 eigenvalues of (default mixing * dielectric matrix)
  average eigenvalue GAMMA=   0.2904
  0.5991  0.3668  0.1385  0.0570

 Free energy of the ion-electron system (eV)
  ---------------------------------------------------
  alpha Z        PSCENC =      1425.55200073
  Ewald energy   TEWEN  =    164298.40388444
  -Hartree energ DENC   =   -210204.28487996
  -exchange      EXHF   =         0.00000000
  -V(xc)+E(xc)   XCENC  =       726.43587064
  PAW double counting   =     51777.21974370   -53368.07139843
  entropy T*S    EENTRO =         0.00000000
  eigenvalues    EBANDS =     -1361.66101652
  atomic energy  EATOM  =     46253.10162290
  Solvation  Ediel_sol  =         0.00000000
  ---------------------------------------------------
  free energy    TOTEN  =      -453.30417249 eV

  energy without entropy =     -453.30417249  energy(sigma->0) =     -453.30417249


--------------------------------------------------------------------------------------------------------




--------------------------------------- Iteration      1(  10)  ---------------------------------------


    POTLOK:  cpu time    0.2650: real time    0.2689
    SETDIJ:  cpu time    0.0180: real time    0.0181
    EDDIAG:  cpu time    3.5405: real time    3.5816
  RMM-DIIS:  cpu time   15.5466: real time   15.9210
    ORTHCH:  cpu time    0.6159: real time    0.6214
 BZINTS: Fermi energy: -0.264377;546.000000 electrons
         Band energy:***********;  BLOECHL correction: -0.023150
       DOS:  cpu time    0.0390: real time    0.0398
    CHARGE:  cpu time    0.7429: real time    0.7483
    MIXING:  cpu time    0.0040: real time    0.0047
    --------------------------------------------
      LOOP:  cpu time   20.7728: real time   21.2038

 eigenvalue-minimisations  :  8497
 total energy-change (2. order) : 0.1210097E-02  (-0.2373403E-03)
 number of electron     545.9999927 magnetization     135.2428722
 augmentation part      300.9688728 magnetization     109.5685401

 DIPCOR: dipole corrections for dipol
 direction  3 min pos   238,
 dipolmoment           0.000000      0.000000      0.001623 electrons x Angstroem
 Tr[quadrupol]     -9240.340800

 energy correction for charged system         0.000000 eV
 dipol+quadrupol energy correction           -0.000000 eV
 added-field ion interaction         -0.004806 eV  (added to PSCEN)


 Broyden mixing:
  rms(total) = 0.40147E-01    rms(broyden)= 0.40146E-01
  rms(prec ) = 0.43486E-01
  weight for this iteration     100.00

 eigenvalues of (default mixing * dielectric matrix)
  average eigenvalue GAMMA=   0.4202
  0.9665  0.7875  0.0570  0.1324  0.1577

 Free energy of the ion-electron system (eV)
  ---------------------------------------------------
  alpha Z        PSCENC =      1425.54514387
  Ewald energy   TEWEN  =    164298.40388444
  -Hartree energ DENC   =   -210205.04896581
  -exchange      EXHF   =         0.00000000
  -V(xc)+E(xc)   XCENC  =       726.39982943
  PAW double counting   =     51773.36148236   -53364.11117661
  entropy T*S    EENTRO =         0.00000000
  eigenvalues    EBANDS =     -1360.95478298
  atomic energy  EATOM  =     46253.10162290
  Solvation  Ediel_sol  =         0.00000000
  ---------------------------------------------------
  free energy    TOTEN  =      -453.30296240 eV

  energy without entropy =     -453.30296240  energy(sigma->0) =     -453.30296240


--------------------------------------------------------------------------------------------------------




--------------------------------------- Iteration      1(  11)  ---------------------------------------


    POTLOK:  cpu time    0.2440: real time    0.2448
    SETDIJ:  cpu time    0.0190: real time    0.0178
    EDDIAG:  cpu time    3.5985: real time    3.6026
  RMM-DIIS:  cpu time   15.3427: real time   15.4100
    ORTHCH:  cpu time    0.6189: real time    0.6197
 BZINTS: Fermi energy: -0.264101;546.000000 electrons
         Band energy:***********;  BLOECHL correction: -0.023165
       DOS:  cpu time    0.0390: real time    0.0398
    CHARGE:  cpu time    0.7249: real time    0.7250
    MIXING:  cpu time    0.0060: real time    0.0049
    --------------------------------------------
      LOOP:  cpu time   20.5919: real time   20.6646

 eigenvalue-minimisations  :  8473
 total energy-change (2. order) : 0.2342776E-02  (-0.9562351E-04)
 number of electron     545.9999927 magnetization     135.2210049
 augmentation part      300.9615635 magnetization     109.5438018

 DIPCOR: dipole corrections for dipol
 direction  3 min pos   240,
 dipolmoment           0.000000      0.000000      0.002069 electrons x Angstroem
 Tr[quadrupol]     -9240.344148

 energy correction for charged system         0.000000 eV
 dipol+quadrupol energy correction           -0.000000 eV
 added-field ion interaction          0.008303 eV  (added to PSCEN)


 Broyden mixing:
  rms(total) = 0.30139E-01    rms(broyden)= 0.30138E-01
  rms(prec ) = 0.32862E-01
  weight for this iteration     100.00

 eigenvalues of (default mixing * dielectric matrix)
  average eigenvalue GAMMA=   0.4211
  1.0785  0.8065  0.3034  0.0570  0.1533  0.1277

 Free energy of the ion-electron system (eV)
  ---------------------------------------------------
  alpha Z        PSCENC =      1425.55825329
  Ewald energy   TEWEN  =    164298.40388444
  -Hartree energ DENC   =   -210205.43026267
  -exchange      EXHF   =         0.00000000
  -V(xc)+E(xc)   XCENC  =       726.35795298
  PAW double counting   =     51761.08041549   -53351.80463295
  entropy T*S    EENTRO =         0.00000000
  eigenvalues    EBANDS =     -1360.56785309
  atomic energy  EATOM  =     46253.10162290
  Solvation  Ediel_sol  =         0.00000000
  ---------------------------------------------------
  free energy    TOTEN  =      -453.30061962 eV

  energy without entropy =     -453.30061962  energy(sigma->0) =     -453.30061962


--------------------------------------------------------------------------------------------------------




--------------------------------------- Iteration      1(  12)  ---------------------------------------


    POTLOK:  cpu time    0.2460: real time    0.2482
    SETDIJ:  cpu time    0.0190: real time    0.0179
    EDDIAG:  cpu time    3.6204: real time    3.6246
  RMM-DIIS:  cpu time   15.7326: real time   15.7665
    ORTHCH:  cpu time    0.6179: real time    0.6191
 BZINTS: Fermi energy: -0.263624;546.000000 electrons
         Band energy:***********;  BLOECHL correction: -0.022815
       DOS:  cpu time    0.0410: real time    0.0410
    CHARGE:  cpu time    0.7579: real time    0.7578
    MIXING:  cpu time    0.0060: real time    0.0051
    --------------------------------------------
      LOOP:  cpu time   21.0408: real time   21.0802

 eigenvalue-minimisations  :  8505
 total energy-change (2. order) : 0.1194772E-02  (-0.9153642E-04)
 number of electron     545.9999927 magnetization     135.1547039
 augmentation part      300.9617119 magnetization     109.4799490

 DIPCOR: dipole corrections for dipol
 direction  3 min pos   243,
 dipolmoment           0.000000      0.000000      0.001799 electrons x Angstroem
 Tr[quadrupol]     -9240.355807

 energy correction for charged system         0.000000 eV
 dipol+quadrupol energy correction           -0.000000 eV
 added-field ion interaction          0.026031 eV  (added to PSCEN)


 Broyden mixing:
  rms(total) = 0.30831E-01    rms(broyden)= 0.30829E-01
  rms(prec ) = 0.33922E-01
  weight for this iteration     100.00

 eigenvalues of (default mixing * dielectric matrix)
  average eigenvalue GAMMA=   0.5001
  1.4668  0.9102  0.6391  0.0570  0.1620  0.1392  0.1265

 Free energy of the ion-electron system (eV)
  ---------------------------------------------------
  alpha Z        PSCENC =      1425.57598119
  Ewald energy   TEWEN  =    164298.40388444
  -Hartree energ DENC   =   -210205.78926588
  -exchange      EXHF   =         0.00000000
  -V(xc)+E(xc)   XCENC  =       726.35004614
  PAW double counting   =     51756.48143935   -53347.18694195
  entropy T*S    EENTRO =         0.00000000
  eigenvalues    EBANDS =     -1360.23619104
  atomic energy  EATOM  =     46253.10162290
  Solvation  Ediel_sol  =         0.00000000
  ---------------------------------------------------
  free energy    TOTEN  =      -453.29942485 eV

  energy without entropy =     -453.29942485  energy(sigma->0) =     -453.29942485


--------------------------------------------------------------------------------------------------------




--------------------------------------- Iteration      1(  13)  ---------------------------------------


    POTLOK:  cpu time    0.2460: real time    0.2477
    SETDIJ:  cpu time    0.0180: real time    0.0178
    EDDIAG:  cpu time    3.6594: real time    3.6658
  RMM-DIIS:  cpu time   15.2247: real time   15.3623
    ORTHCH:  cpu time    0.6479: real time    0.6492
 BZINTS: Fermi energy: -0.263076;546.000000 electrons
         Band energy:***********;  BLOECHL correction: -0.022732
       DOS:  cpu time    0.0400: real time    0.0395
    CHARGE:  cpu time    0.7359: real time    0.7583
    MIXING:  cpu time    0.0050: real time    0.0052
    --------------------------------------------
      LOOP:  cpu time   20.5769: real time   20.7458

 eigenvalue-minimisations  :  8397
 total energy-change (2. order) : 0.2270362E-02  (-0.5908848E-04)
 number of electron     545.9999927 magnetization     135.1283973
 augmentation part      300.9552579 magnetization     109.4705848

 DIPCOR: dipole corrections for dipol
 direction  3 min pos   245,
 dipolmoment           0.000000      0.000000      0.002606 electrons x Angstroem
 Tr[quadrupol]     -9240.374275

 energy correction for charged system         0.000000 eV
 dipol+quadrupol energy correction           -0.000000 eV
 added-field ion interaction          0.055887 eV  (added to PSCEN)


 Broyden mixing:
  rms(total) = 0.30787E-01    rms(broyden)= 0.30786E-01
  rms(prec ) = 0.33879E-01
  weight for this iteration     100.00

 eigenvalues of (default mixing * dielectric matrix)
  average eigenvalue GAMMA=   0.4939
  1.5228  1.0756  0.6485  0.0570  0.2290  0.1560  0.1267  0.1355

 Free energy of the ion-electron system (eV)
  ---------------------------------------------------
  alpha Z        PSCENC =      1425.60583674
  Ewald energy   TEWEN  =    164298.40388444
  -Hartree energ DENC   =   -210206.45060717
  -exchange      EXHF   =         0.00000000
  -V(xc)+E(xc)   XCENC  =       726.33805867
  PAW double counting   =     51744.14844981   -53334.81006444
  entropy T*S    EENTRO =         0.00000000
  eigenvalues    EBANDS =     -1359.63433545
  atomic energy  EATOM  =     46253.10162290
  Solvation  Ediel_sol  =         0.00000000
  ---------------------------------------------------
  free energy    TOTEN  =      -453.29715449 eV

  energy without entropy =     -453.29715449  energy(sigma->0) =     -453.29715449


--------------------------------------------------------------------------------------------------------




--------------------------------------- Iteration      1(  14)  ---------------------------------------


    POTLOK:  cpu time    0.2460: real time    0.2473
    SETDIJ:  cpu time    0.0190: real time    0.0178
    EDDIAG:  cpu time    3.6055: real time    3.6555
  RMM-DIIS:  cpu time   15.0707: real time   15.3288
    ORTHCH:  cpu time    0.6309: real time    0.6526
 BZINTS: Fermi energy: -0.263138;546.000000 electrons
         Band energy:***********;  BLOECHL correction: -0.022691
       DOS:  cpu time    0.0360: real time    0.0362
    CHARGE:  cpu time    0.7269: real time    0.7294
    MIXING:  cpu time    0.0060: real time    0.0068
    --------------------------------------------
      LOOP:  cpu time   20.3409: real time   20.6745

 eigenvalue-minimisations  :  8455
 total energy-change (2. order) : 0.7112162E-03  (-0.5652687E-04)
 number of electron     545.9999927 magnetization     135.0749527
 augmentation part      300.9686349 magnetization     109.4098285

 DIPCOR: dipole corrections for dipol
 direction  3 min pos   246,
 dipolmoment           0.000000      0.000000      0.002796 electrons x Angstroem
 Tr[quadrupol]     -9240.373794

 energy correction for charged system         0.000000 eV
 dipol+quadrupol energy correction           -0.000000 eV
 added-field ion interaction          0.069712 eV  (added to PSCEN)


 Broyden mixing:
  rms(total) = 0.17878E-01    rms(broyden)= 0.17877E-01
  rms(prec ) = 0.19323E-01
  weight for this iteration     100.00

 eigenvalues of (default mixing * dielectric matrix)
  average eigenvalue GAMMA=   0.5983
  2.1247  1.2935  0.7247  0.6216  0.0570  0.1648  0.1474  0.1306  0.1209

 Free energy of the ion-electron system (eV)
  ---------------------------------------------------
  alpha Z        PSCENC =      1425.61966193
  Ewald energy   TEWEN  =    164298.40388444
  -Hartree energ DENC   =   -210206.30016397
  -exchange      EXHF   =         0.00000000
  -V(xc)+E(xc)   XCENC  =       726.32422232
  PAW double counting   =     51740.06616981   -53330.66623634
  entropy T*S    EENTRO =         0.00000000
  eigenvalues    EBANDS =     -1359.84560435
  atomic energy  EATOM  =     46253.10162290
  Solvation  Ediel_sol  =         0.00000000
  ---------------------------------------------------
  free energy    TOTEN  =      -453.29644327 eV

  energy without entropy =     -453.29644327  energy(sigma->0) =     -453.29644327


--------------------------------------------------------------------------------------------------------




--------------------------------------- Iteration      1(  15)  ---------------------------------------


    POTLOK:  cpu time    0.2460: real time    0.2473
    SETDIJ:  cpu time    0.0190: real time    0.0183
    EDDIAG:  cpu time    3.5505: real time    3.6000
  RMM-DIIS:  cpu time   15.0347: real time   15.2453
    ORTHCH:  cpu time    0.6319: real time    0.6566
 BZINTS: Fermi energy: -0.262603;546.000000 electrons
         Band energy:***********;  BLOECHL correction: -0.022596
       DOS:  cpu time    0.0400: real time    0.0400
    CHARGE:  cpu time    0.7669: real time    0.7675
    MIXING:  cpu time    0.0050: real time    0.0056
    --------------------------------------------
      LOOP:  cpu time   20.2939: real time   20.5805

 eigenvalue-minimisations  :  8405
 total energy-change (2. order) :-0.4371174E-03  (-0.2838251E-04)
 number of electron     545.9999927 magnetization     135.0548511
 augmentation part      300.9579218 magnetization     109.4086399

 DIPCOR: dipole corrections for dipol
 direction  3 min pos   246,
 dipolmoment           0.000000      0.000000      0.003052 electrons x Angstroem
 Tr[quadrupol]     -9240.385008

 energy correction for charged system         0.000000 eV
 dipol+quadrupol energy correction           -0.000000 eV
 added-field ion interaction          0.076090 eV  (added to PSCEN)


 Broyden mixing:
  rms(total) = 0.21847E-01    rms(broyden)= 0.21846E-01
  rms(prec ) = 0.24061E-01
  weight for this iteration     100.00

 eigenvalues of (default mixing * dielectric matrix)
  average eigenvalue GAMMA=   0.5854
  2.3087  1.3939  0.7081  0.6619  0.0570  0.1733  0.1583  0.1458  0.1261  0.1211

 Free energy of the ion-electron system (eV)
  ---------------------------------------------------
  alpha Z        PSCENC =      1425.62603944
  Ewald energy   TEWEN  =    164298.40388444
  -Hartree energ DENC   =   -210206.77169569
  -exchange      EXHF   =         0.00000000
  -V(xc)+E(xc)   XCENC  =       726.32677262
  PAW double counting   =     51735.20224268   -53325.80175463
  entropy T*S    EENTRO =         0.00000000
  eigenvalues    EBANDS =     -1359.38399215
  atomic energy  EATOM  =     46253.10162290
  Solvation  Ediel_sol  =         0.00000000
  ---------------------------------------------------
  free energy    TOTEN  =      -453.29688039 eV

  energy without entropy =     -453.29688039  energy(sigma->0) =     -453.29688039


--------------------------------------------------------------------------------------------------------




--------------------------------------- Iteration      1(  16)  ---------------------------------------


    POTLOK:  cpu time    0.2460: real time    0.2470
    SETDIJ:  cpu time    0.0190: real time    0.0192
    EDDIAG:  cpu time    3.5775: real time    3.6282
  RMM-DIIS:  cpu time   15.2817: real time   15.4669
    ORTHCH:  cpu time    0.6279: real time    0.6296
 BZINTS: Fermi energy: -0.262743;546.000000 electrons
         Band energy:***********;  BLOECHL correction: -0.022607
       DOS:  cpu time    0.0390: real time    0.0395
    CHARGE:  cpu time    0.7239: real time    0.7232
    MIXING:  cpu time    0.0060: real time    0.0058
    --------------------------------------------
      LOOP:  cpu time   20.5209: real time   20.7593

 eigenvalue-minimisations  :  8425
 total energy-change (2. order) :-0.4273551E-03  (-0.1893493E-04)
 number of electron     545.9999927 magnetization     135.0130375
 augmentation part      300.9647287 magnetization     109.3655017

 DIPCOR: dipole corrections for dipol
 direction  3 min pos   246,
 dipolmoment           0.000000      0.000000      0.003108 electrons x Angstroem
 Tr[quadrupol]     -9240.384407

 energy correction for charged system         0.000000 eV
 dipol+quadrupol energy correction           -0.000000 eV
 added-field ion interaction          0.077504 eV  (added to PSCEN)


 Broyden mixing:
  rms(total) = 0.95629E-02    rms(broyden)= 0.95620E-02
  rms(prec ) = 0.99482E-02
  weight for this iteration     100.00

 eigenvalues of (default mixing * dielectric matrix)
  average eigenvalue GAMMA=   0.6220
  2.6310  1.3622  0.7678  0.7678  0.5520  0.0570  0.1677  0.1521  0.1369  0.1281
  0.1193

 Free energy of the ion-electron system (eV)
  ---------------------------------------------------
  alpha Z        PSCENC =      1425.62745406
  Ewald energy   TEWEN  =    164298.40388444
  -Hartree energ DENC   =   -210206.70668321
  -exchange      EXHF   =         0.00000000
  -V(xc)+E(xc)   XCENC  =       726.32193968
  PAW double counting   =     51733.97522405   -53324.55673870
  entropy T*S    EENTRO =         0.00000000
  eigenvalues    EBANDS =     -1359.46401096
  atomic energy  EATOM  =     46253.10162290
  Solvation  Ediel_sol  =         0.00000000
  ---------------------------------------------------
  free energy    TOTEN  =      -453.29730774 eV

  energy without entropy =     -453.29730774  energy(sigma->0) =     -453.29730774


--------------------------------------------------------------------------------------------------------




--------------------------------------- Iteration      1(  17)  ---------------------------------------


    POTLOK:  cpu time    0.2450: real time    0.2460
    SETDIJ:  cpu time    0.0180: real time    0.0180
    EDDIAG:  cpu time    3.6304: real time    3.6370
  RMM-DIIS:  cpu time   15.2367: real time   15.3223
    ORTHCH:  cpu time    0.6209: real time    0.6235
 BZINTS: Fermi energy: -0.262658;546.000000 electrons
         Band energy:***********;  BLOECHL correction: -0.022539
       DOS:  cpu time    0.0380: real time    0.0377
    CHARGE:  cpu time    0.7429: real time    0.7447
    MIXING:  cpu time    0.0060: real time    0.0061
    --------------------------------------------
      LOOP:  cpu time   20.5379: real time   20.6352

 eigenvalue-minimisations  :  8388
 total energy-change (2. order) :-0.2262462E-02  (-0.1692057E-04)
 number of electron     545.9999927 magnetization     134.9680117
 augmentation part      300.9593256 magnetization     109.3331678

 DIPCOR: dipole corrections for dipol
 direction  3 min pos   245,
 dipolmoment           0.000000      0.000000      0.003546 electrons x Angstroem
 Tr[quadrupol]     -9240.387256

 energy correction for charged system         0.000000 eV
 dipol+quadrupol energy correction           -0.000001 eV
 added-field ion interaction          0.076044 eV  (added to PSCEN)


 Broyden mixing:
  rms(total) = 0.16798E-01    rms(broyden)= 0.16797E-01
  rms(prec ) = 0.18288E-01
  weight for this iteration     100.00

 eigenvalues of (default mixing * dielectric matrix)
  average eigenvalue GAMMA=   0.6370
  2.9188  1.4048  1.0311  0.7793  0.5966  0.0570  0.1649  0.1649  0.1488  0.1323
  0.1285  0.1171

 Free energy of the ion-electron system (eV)
  ---------------------------------------------------
  alpha Z        PSCENC =      1425.62599320
  Ewald energy   TEWEN  =    164298.40388444
  -Hartree energ DENC   =   -210206.85889224
  -exchange      EXHF   =         0.00000000
  -V(xc)+E(xc)   XCENC  =       726.31918854
  PAW double counting   =     51733.20403963   -53323.79622375
  entropy T*S    EENTRO =         0.00000000
  eigenvalues    EBANDS =     -1359.29918293
  atomic energy  EATOM  =     46253.10162290
  Solvation  Ediel_sol  =         0.00000000
  ---------------------------------------------------
  free energy    TOTEN  =      -453.29957021 eV

  energy without entropy =     -453.29957021  energy(sigma->0) =     -453.29957021


--------------------------------------------------------------------------------------------------------




--------------------------------------- Iteration      1(  18)  ---------------------------------------


    POTLOK:  cpu time    0.2640: real time    0.2649
    SETDIJ:  cpu time    0.0190: real time    0.0182
    EDDIAG:  cpu time    3.5825: real time    3.5907
[...]
   -.369E+02 0.432E+01 0.626E+03   0.369E+02 -.474E+01 -.625E+03   0.147E+00 -.728E-01 -.722E+00   -.836E-04 -.990E-04 -.568E-03
   -.921E+02 0.112E+02 -.666E+03   0.926E+02 -.113E+02 0.665E+03   -.482E+00 0.943E-01 0.917E+00   -.812E-04 -.652E-04 -.513E-03
   0.348E+02 -.170E+02 0.639E+03   -.352E+02 0.165E+02 -.639E+03   -.227E+00 -.867E+00 -.208E+00   -.211E-04 0.162E-05 -.532E-03
   -.880E+01 -.188E+02 -.714E+03   0.880E+01 0.189E+02 0.714E+03   -.118E-01 -.708E-01 0.242E-01   -.380E-04 -.233E-04 -.474E-03
   -.232E+01 -.190E+02 0.202E+04   0.250E+01 0.188E+02 -.202E+04   -.949E+00 0.726E+00 -.240E+01   -.863E-04 -.891E-04 -.178E-03
   -.727E+02 0.321E+02 -.203E+04   0.732E+02 -.324E+02 0.202E+04   -.532E+00 0.258E+00 0.293E+01   -.800E-04 0.715E-04 -.106E-03
   0.896E+02 -.626E+02 -.678E+03   -.902E+02 0.628E+02 0.677E+03   0.584E+00 -.221E+00 0.368E+00   0.786E-04 -.498E-04 -.463E-03
   0.104E+02 -.291E+02 0.205E+04   -.108E+02 0.290E+02 -.205E+04   0.853E+00 0.329E-01 -.194E+01   -.695E-04 -.337E-04 -.225E-03
   0.387E+02 -.212E+02 -.200E+04   -.392E+02 0.208E+02 0.200E+04   0.551E+00 0.395E+00 0.235E+01   0.980E-05 0.963E-04 -.134E-03
   -.976E+01 -.483E+01 0.640E+03   0.100E+02 0.552E+01 -.639E+03   0.582E+00 0.262E+00 -.174E+00   -.225E-04 0.121E-03 -.596E-03
   0.367E+02 -.108E+02 0.633E+03   -.369E+02 0.109E+02 -.633E+03   -.241E+00 0.660E+00 -.732E+00   -.218E-05 -.166E-04 -.566E-03
   0.539E+02 -.523E+02 -.692E+03   -.539E+02 0.527E+02 0.692E+03   0.465E-01 -.440E+00 0.197E+00   0.895E-05 -.769E-04 -.468E-03
   -.941E+01 0.209E+02 0.641E+03   0.954E+01 -.207E+02 -.640E+03   -.383E+00 -.215E-01 -.686E+00   -.133E-05 0.877E-06 -.531E-03
   0.252E+02 0.404E+01 -.651E+03   -.255E+02 -.421E+01 0.650E+03   0.379E+00 0.154E+00 0.793E+00   -.449E-05 -.740E-04 -.462E-03
   0.112E+02 -.177E+02 0.200E+04   -.113E+02 0.178E+02 -.199E+04   0.856E+00 -.547E+00 -.285E+01   0.769E-05 0.363E-06 -.228E-03
   0.645E+02 -.656E+02 -.202E+04   -.649E+02 0.661E+02 0.202E+04   0.401E+00 -.508E+00 0.260E+01   0.309E-04 -.599E-04 -.138E-03
   -.229E+02 0.351E+02 0.685E+03   0.227E+02 -.348E+02 -.684E+03   0.171E+00 0.200E+00 0.383E+00   0.341E-04 0.913E-04 -.587E-03
   -.514E+02 0.707E+02 -.675E+03   0.515E+02 -.709E+02 0.675E+03   -.136E+00 0.198E+00 0.448E+00   -.204E-04 -.279E-04 -.464E-03
   -.242E+02 0.363E+02 -.711E+03   0.244E+02 -.364E+02 0.711E+03   -.195E+00 0.126E+00 0.227E+00   0.173E-04 0.250E-04 -.416E-03
   -.626E+01 0.835E+01 0.201E+04   0.653E+01 -.850E+01 -.200E+04   -.644E+00 -.126E+00 -.272E+01   -.307E-04 0.182E-04 -.250E-03
   -.487E+02 0.169E+02 -.203E+04   0.493E+02 -.167E+02 0.203E+04   -.544E+00 -.151E+00 0.306E+01   0.132E-04 0.246E-04 -.719E-04
   0.263E+02 -.130E+02 0.200E+04   -.264E+02 0.131E+02 -.200E+04   0.113E-01 -.525E+00 -.202E+01   0.995E-05 0.923E-04 -.267E-03
   0.378E+02 -.298E+02 -.203E+04   -.379E+02 0.304E+02 0.202E+04   0.387E-01 -.627E+00 0.285E+01   -.214E-04 0.100E-04 -.976E-04
   -.381E+02 0.310E+02 -.694E+03   0.381E+02 -.313E+02 0.694E+03   0.548E-02 0.241E+00 0.126E-01   -.931E-04 0.510E-04 -.541E-03
   0.771E+02 -.132E+02 -.675E+03   -.774E+02 0.134E+02 0.674E+03   0.354E+00 -.215E+00 0.528E+00   0.472E-04 0.242E-05 -.545E-03
   0.136E+02 -.741E+01 0.203E+04   -.140E+02 0.745E+01 -.202E+04   0.498E+00 0.355E+00 -.234E+01   -.850E-04 0.865E-04 -.232E-03
   0.274E+02 -.152E+02 -.200E+04   -.280E+02 0.151E+02 0.200E+04   0.596E+00 0.486E-01 0.254E+01   -.572E-04 -.875E-04 -.885E-04
   -.184E+02 0.157E+02 0.200E+04   0.186E+02 -.157E+02 -.200E+04   -.510E+00 0.225E-01 -.270E+01   0.658E-04 0.414E-04 -.239E-03
   -.466E+02 0.295E+02 -.205E+04   0.470E+02 -.297E+02 0.205E+04   -.403E+00 0.221E+00 0.249E+01   0.459E-04 -.268E-04 -.113E-03
   -.105E+01 0.546E+01 0.200E+04   0.936E+00 -.541E+01 -.200E+04   -.213E+00 0.537E+00 -.232E+01   0.514E-04 0.130E-03 -.212E-03
   -.492E+02 0.477E+02 -.201E+04   0.496E+02 -.482E+02 0.201E+04   -.383E+00 0.486E+00 0.197E+01   -.215E-04 -.102E-04 -.907E-04
   0.144E+02 0.337E+02 0.835E+03   -.143E+02 -.339E+02 -.834E+03   0.524E-01 0.303E+00 -.461E+00   -.144E-03 0.979E-04 -.796E-03
   -.311E+02 0.372E+00 0.833E+03   0.311E+02 -.382E+00 -.833E+03   -.323E+00 0.117E+00 -.691E+00   0.116E-03 -.783E-04 -.598E-03
   0.215E+02 -.437E+02 0.825E+03   -.214E+02 0.439E+02 -.824E+03   0.261E+00 -.231E+00 -.414E+00   -.117E-03 -.430E-04 -.701E-03
   0.578E+02 -.355E+02 0.840E+03   -.579E+02 0.356E+02 -.839E+03   0.942E-01 0.170E+00 -.648E+00   0.896E-04 -.111E-03 -.585E-03
   -.256E+02 0.656E+02 0.254E+04   0.257E+02 -.660E+02 -.253E+04   0.104E+00 0.862E+00 -.123E+01   0.155E-03 -.122E-04 -.186E-03
   -.234E+02 0.634E+02 -.254E+04   0.233E+02 -.638E+02 0.253E+04   0.897E-03 0.361E+00 0.917E+00   0.923E-04 0.411E-04 -.218E-03
   0.804E+01 -.799E+02 -.755E+03   -.810E+01 0.801E+02 0.755E+03   0.627E-01 -.255E+00 0.357E+00   0.525E-04 -.116E-03 -.638E-03
   -.443E+02 -.121E+02 0.252E+04   0.448E+02 0.121E+02 -.252E+04   -.624E+00 -.552E-01 -.164E+01   0.824E-04 -.138E-03 -.187E-03
   -.658E+02 0.117E+02 -.251E+04   0.661E+02 -.119E+02 0.251E+04   -.325E+00 0.153E+00 0.659E+00   -.176E-04 0.226E-05 -.232E-03
   0.376E+02 -.403E+02 0.255E+04   -.379E+02 0.405E+02 -.255E+04   0.556E+00 -.343E+00 -.772E+00   0.100E-03 -.578E-04 -.252E-03
   0.101E+03 -.448E+02 -.249E+04   -.102E+03 0.449E+02 0.249E+04   0.465E+00 -.526E-01 0.310E+00   0.109E-03 0.323E-04 -.269E-03
   -.407E+02 0.578E+01 0.250E+04   0.410E+02 -.581E+01 -.250E+04   -.435E+00 -.107E+00 -.151E+01   0.148E-04 -.866E-04 -.257E-03
   -.614E+02 0.317E+01 -.253E+04   0.617E+02 -.302E+01 0.253E+04   -.294E+00 -.122E+00 0.134E+01   -.328E-04 -.678E-04 -.130E-03
   0.434E+02 0.535E+01 -.831E+03   -.434E+02 -.528E+01 0.830E+03   0.199E-01 -.666E-01 0.696E+00   0.179E-04 0.745E-04 -.678E-03
   0.111E+02 -.152E+02 0.250E+04   -.112E+02 0.156E+02 -.250E+04   0.342E+00 -.550E+00 -.105E+01   -.434E-04 0.278E-04 -.305E-03
   0.748E+02 -.413E+02 -.252E+04   -.751E+02 0.416E+02 0.252E+04   0.266E+00 -.232E+00 0.480E+00   0.446E-04 -.127E-03 -.153E-03
   -.821E+02 0.798E+02 -.795E+03   0.824E+02 -.802E+02 0.794E+03   -.293E+00 0.374E+00 0.559E+00   0.368E-04 0.140E-03 -.653E-03
 -----------------------------------------------------------------------------------------------
   0.608E+00 0.272E+00 0.177E+01   -.284E-13 0.426E-13 0.284E-11   -.608E+00 -.268E+00 -.174E+01   0.101E-03 -.246E-04 -.238E-01
 
 
 POSITION                                       TOTAL-FORCE (eV/Angst)
 -----------------------------------------------------------------------------------
     -5.03208      8.74992      4.15716        -0.317282      0.340977     -0.163647
      0.00574      8.72607      4.14261        -0.344534      0.508356     -0.148752
      2.47665      8.72592      4.10615         0.601013      0.399502      0.408821
      1.23891      2.21748      4.15676         0.329907     -0.254711     -0.355163
     -0.01162      1.46895      6.25341         0.019844      0.015555     -0.000715
      2.54446      1.46552      6.19984        -0.014050      0.002618     -0.013902
      1.28611      0.70882      2.01970        -0.101060      0.152668      0.204515
      1.25149      0.72099      8.36895        -0.004685     -0.013579     -0.012768
      5.12246      1.48747      6.18514        -0.008261      0.011918     -0.007741
      3.82589      0.76557      2.01626        -0.179361     -0.215343      0.223747
      3.76355      0.75674      8.30460        -0.017930      0.027794      0.002885
      7.62180      1.45688      6.17974         0.006362     -0.003367      0.016169
      6.32723      0.72925      2.06016         0.040119      0.087057     -0.072686
      6.30377      0.77702      8.31725        -0.026301      0.044193     -0.031258
     -2.55062      4.47399      4.10791         0.432509     -1.634389      0.383954
      0.03014      4.42905      4.16816        -0.279624     -0.656744     -0.222634
      2.50847      4.40516      4.17229         0.210597     -0.485680     -0.213383
      1.24810      3.67331      6.30652         0.021295      0.014785     -0.005485
      5.08382      4.44890      4.14610        -0.583831     -1.385224      0.238227
      3.78941      3.64333      6.26686        -0.006706     -0.022519      0.010736
      2.59838      2.86105      2.03126        -0.766652      0.554892      0.109282
      2.48604      2.92538      8.41010        -0.012066     -0.008075     -0.043211
      6.35186      3.67861      6.22879         0.007261     -0.008028     -0.059177
      5.00304      2.93728      2.00000         0.542626     -0.076063      0.310394
      5.02646      2.90798      8.33786        -0.005303     -0.026009     -0.003978
      6.25194      6.54167      4.13342         0.842012      0.953316      0.612582
     -1.23133      6.52951      4.16156        -0.426760      0.747639     -0.142861
     -2.48935      5.84084      6.26533         0.021777     -0.034537     -0.010310
      1.28426      6.55944      4.17203        -0.253632      0.144628     -0.177544
      0.06385      5.87738      6.28803         0.021933     -0.025048      0.002877
     -1.31907      5.15820      2.10199         0.780895     -0.455922     -0.369827
     -1.22095      5.04428      8.28847        -0.000740     -0.034725     -0.005818
      3.77628      6.55571      4.09794        -0.011343      0.482151      0.848309
      2.57658      5.87168      6.28664         0.022303     -0.002962     -0.008754
      5.05129      5.86783      6.28063         0.032392     -0.001053      0.006013
      3.83733      5.12538      2.04986        -0.375545     -0.282741     -0.446267
      3.79040      5.12402      8.42855        -0.003910      0.004983      0.015003
      6.32391      5.14322      2.08697        -0.150604     -0.424475     -0.815416
      6.33345      5.11510      8.39687        -0.019310     -0.000807     -0.010682
     -3.77120      8.04592      6.22699        -0.006335      0.015285      0.037109
     -1.19667      8.03185      6.22374        -0.001201      0.015996     -0.019636
     -2.55850      7.28170      2.01510         0.174145      0.395929      0.099018
     -2.55968      7.26492      8.34848        -0.052805      0.027009     -0.037104
      2.56196      7.27552      2.12154        -0.328141      0.014888     -0.371842
      2.46152      7.32798      8.28809        -0.037463      0.022254     -0.006551
      5.10630      7.24251      2.09022        -0.326813      0.585531     -0.706093
      5.01121      7.32499      8.31012        -0.025570      0.026075      0.011183
     -2.52690      8.74056      4.13098         0.170754      0.105302     -0.243847
     -1.24953      2.18697      4.15198        -0.307495      0.107635     -0.426276
      3.77687      2.20348      4.12618         0.313916     -0.097970      0.061190
      6.31052      2.19548      4.13380         0.060345      0.284548     -0.310866
      8.84357      0.69437      2.06440         0.189362      0.385286      0.430683
      8.81258      0.74896      8.25522        -0.025805      0.008982      0.004667
     -1.25981      3.65482      6.17955         0.007016      0.016874     -0.015505
      0.03628      2.92806      2.06598        -0.202469     -0.067177      0.455126
     -0.00944      2.88524      8.25581        -0.006915      0.012745     -0.003023
      7.55782      2.94639      2.05577         0.224400     -0.057933      0.547806
      7.57813      2.92626      8.21245        -0.000603      0.029297     -0.022924
      1.28295      5.12031      2.07268        -0.088805     -0.135986      0.278033
      1.26238      5.10429      8.33089         0.003256      0.023847      0.005022
      1.29696      8.06410      6.26334         0.030652      0.002512      0.000144
     -0.02502      7.30581      2.07778         0.214333     -0.171539      0.210344
     -0.02090      7.29875      8.27076        -0.004880      0.002273     -0.021845
      3.77536      8.05475      6.21732         0.003770      0.007304     -0.006352
 -----------------------------------------------------------------------------------
    total drift:                                0.000587      0.003744      0.006695


--------------------------------------------------------------------------------------------------------



  FREE ENERGIE OF THE ION-ELECTRON SYSTEM (eV)
  ---------------------------------------------------
  free  energy   TOTEN  =      -453.30883953 eV

  energy  without entropy=     -453.30883953  energy(sigma->0) =     -453.30883953
 


--------------------------------------------------------------------------------------------------------


    POTLOK:  cpu time    0.3000: real time    0.3032


--------------------------------------------------------------------------------------------------------


     LOOP+:  cpu time  831.7915: real time  837.7523
    4ORBIT:  cpu time    0.0000: real time    0.0000
 


 total charge     
 
# of ion       s       p       d       tot
------------------------------------------
    1        0.469   0.492   6.197   7.158
    2        0.471   0.498   6.205   7.175
    3        0.476   0.503   6.218   7.197
    4        0.466   0.488   6.198   7.153
    5        0.476   0.506   6.205   7.187
    6        0.470   0.495   6.199   7.164
    7        0.469   0.376   6.156   7.001
    8        0.471   0.385   6.164   7.020
    9        0.476   0.505   6.209   7.190
   10        0.472   0.398   6.172   7.043
   11        0.472   0.397   6.176   7.046
   12        0.474   0.500   6.205   7.179
   13        0.471   0.383   6.155   7.009
   14        0.468   0.382   6.166   7.017
   15        0.485   0.514   6.224   7.223
   16        0.476   0.501   6.215   7.192
   17        0.474   0.500   6.204   7.178
   18        0.475   0.505   6.211   7.190
   19        0.482   0.516   6.221   7.219
   20        0.471   0.497   6.203   7.171
   21        0.474   0.394   6.171   7.039
   22        0.468   0.384   6.161   7.012
   23        0.475   0.498   6.206   7.179
   24        0.472   0.394   6.168   7.034
   25        0.474   0.395   6.181   7.050
   26        0.494   0.540   6.242   7.276
   27        0.484   0.521   6.225   7.230
   28        0.476   0.510   6.213   7.199
   29        0.485   0.517   6.237   7.239
   30        0.479   0.510   6.228   7.217
   31        0.479   0.397   6.174   7.050
   32        0.466   0.389   6.151   7.005
   33        0.493   0.538   6.250   7.281
   34        0.475   0.504   6.221   7.201
   35        0.475   0.507   6.208   7.190
   36        0.485   0.411   6.193   7.088
   37        0.469   0.381   6.161   7.010
   38        0.498   0.445   6.211   7.154
   39        0.469   0.384   6.164   7.017
   40        0.472   0.501   6.205   7.178
   41        0.475   0.500   6.213   7.188
   42        0.476   0.402   6.176   7.054
   43        0.469   0.390   6.164   7.023
   44        0.478   0.405   6.200   7.082
   45        0.468   0.393   6.164   7.026
   46        0.493   0.432   6.214   7.139
   47        0.471   0.399   6.172   7.042
   48        0.501   0.502   8.302   9.304
   49        0.492   0.474   8.309   9.274
   50        0.500   0.501   8.306   9.307
   51        0.499   0.492   8.305   9.296
   52        0.493   0.364   8.307   9.165
   53        0.509   0.401   8.316   9.226
   54        0.510   0.511   8.328   9.349
   55        0.483   0.346   8.309   9.137
   56        0.512   0.401   8.323   9.237
   57        0.487   0.356   8.308   9.151
   58        0.511   0.407   8.316   9.233
   59        0.492   0.367   8.321   9.179
   60        0.512   0.399   8.321   9.232
   61        0.519   0.535   8.322   9.376
   62        0.504   0.388   8.314   9.207
   63        0.512   0.401   8.316   9.229
   64        0.511   0.520   8.317   9.348
--------------------------------------------------
tot         30.900  28.747 432.517 492.163
 


 magnetization (x)
 
# of ion       s       p       d       tot
------------------------------------------
    1       -0.010  -0.033   2.645   2.602
    2       -0.009  -0.036   2.625   2.580
    3       -0.011  -0.032   2.597   2.554
    4       -0.010  -0.037   2.617   2.569
    5       -0.008  -0.031   2.623   2.584
    6       -0.014  -0.047   2.620   2.559
    7       -0.003  -0.007   2.768   2.759
    8       -0.006  -0.018   2.744   2.720
    9       -0.014  -0.046   2.590   2.529
   10       -0.002  -0.023   2.707   2.681
   11       -0.009  -0.025   2.691   2.658
   12       -0.004  -0.021   2.634   2.610
   13       -0.001  -0.007   2.771   2.763
   14        0.001  -0.008   2.748   2.740
   15       -0.013  -0.036   2.591   2.542
   16       -0.010  -0.032   2.587   2.544
   17       -0.013  -0.039   2.626   2.575
   18       -0.013  -0.038   2.589   2.539
   19       -0.017  -0.046   2.596   2.534
   20       -0.018  -0.053   2.597   2.526
   21       -0.002  -0.017   2.732   2.714
   22       -0.003  -0.017   2.754   2.734
   23       -0.013  -0.035   2.605   2.556
   24       -0.001  -0.020   2.733   2.712
   25       -0.008  -0.022   2.691   2.660
   26       -0.019  -0.055   2.545   2.471
   27       -0.018  -0.050   2.551   2.483
   28       -0.018  -0.054   2.575   2.503
   29       -0.014  -0.036   2.533   2.483
   30       -0.011  -0.033   2.542   2.498
   31       -0.003  -0.009   2.745   2.733
   32        0.003  -0.013   2.800   2.790
   33       -0.020  -0.056   2.488   2.413
   34       -0.013  -0.039   2.564   2.512
   35       -0.016  -0.052   2.604   2.536
   36       -0.009  -0.019   2.680   2.652
   37       -0.007  -0.020   2.755   2.727
   38       -0.010  -0.029   2.648   2.609
   39       -0.006  -0.020   2.751   2.725
   40       -0.016  -0.051   2.601   2.534
   41       -0.013  -0.039   2.576   2.524
   42       -0.003  -0.018   2.723   2.702
   43       -0.007  -0.025   2.754   2.723
   44       -0.003  -0.013   2.661   2.645
   45        0.004  -0.011   2.760   2.753
   46       -0.011  -0.025   2.622   2.586
   47       -0.006  -0.026   2.718   2.686
   48       -0.034  -0.072   0.763   0.657
   49       -0.025  -0.042   0.726   0.659
   50       -0.033  -0.069   0.755   0.654
   51       -0.031  -0.058   0.747   0.658
   52       -0.027  -0.025   0.730   0.677
   53       -0.028  -0.035   0.711   0.648
   54       -0.030  -0.053   0.692   0.609
   55       -0.024  -0.021   0.714   0.669
   56       -0.029  -0.031   0.698   0.638
   57       -0.027  -0.026   0.703   0.650
   58       -0.031  -0.037   0.713   0.646
   59       -0.029  -0.026   0.695   0.641
   60       -0.031  -0.034   0.709   0.643
   61       -0.033  -0.068   0.730   0.629
   62       -0.032  -0.034   0.715   0.649
   63       -0.033  -0.036   0.733   0.664
   64       -0.031  -0.063   0.737   0.642
--------------------------------------------------
tot         -0.936  -2.148 136.949 133.865
 
 BZINTS: Fermi energy: -0.263749;546.000000 electrons
         Band energy:***********;  BLOECHL correction: -0.022207

 total amount of memory used by VASP MPI-rank0   113567. kBytes
=======================================================================

   base      :      30000. kBytes
   nonlr-proj:      13158. kBytes
   fftplans  :       6403. kBytes
   grid      :      16455. kBytes
   one-center:         93. kBytes
   wavefun   :      47458. kBytes
 
  
  
 General timing and accounting informations for this job:
 ========================================================
  
                  Total CPU time used (sec):      944.648
                            User time (sec):      884.194
                          System time (sec):       60.455
                         Elapsed time (sec):      959.459
  
                   Maximum memory used (kb):      165764.
                   Average memory used (kb):           0.
  
                          Minor page faults:       180373
                          Major page faults:            0
                 Voluntary context switches:         8365
