       N       E                     dE             d eps       ncg     rms          rms(c)
DAV:   1     0.446903047781E+04    0.44690E+04   -0.24802E+05 32880   0.150E+03
DAV:   2     0.139808805918E+02   -0.44550E+04   -0.41720E+04 32880   0.343E+02
DAV:   3    -0.397701906878E+03   -0.41168E+03   -0.35318E+03 34116   0.144E+02
DAV:   4    -0.414591365875E+03   -0.16889E+02   -0.16534E+02 34971   0.319E+01
DAV:   5    -0.414903581788E+03   -0.31222E+00   -0.31196E+00 37743   0.357E+00
RMM:   6    -0.414914606234E+03   -0.11024E-01   -0.11020E-01 34199   0.633E-01
RMM:   7    -0.414917978383E+03   -0.33721E-02   -0.33632E-02 50133   0.247E-01
RMM:   8    -0.414918043004E+03   -0.64622E-04   -0.68911E-04 46970   0.281E-02
RMM:   9    -0.414918069118E+03   -0.26114E-04   -0.25872E-04 34223   0.909E-03
RMM:  10    -0.414918071386E+03   -0.22679E-05   -0.16464E-05 22709   0.373E-03
RMM:  11    -0.414918072211E+03   -0.82544E-06   -0.79184E-06 21286   0.217E-03
   1 F= -.41491807E+03 E0= -.41491807E+03  d E =0.000000E+00  mag=   105.9540
