 vasp.5.4.4.18Apr17-6-g9f103f2a35 (build Sep 06 2021 19:49:22) complex          
  
 executed on             LinuxIFC date 2022.01.03  19:55:23
 running on   72 total cores
 distrk:  each k-point on   72 cores,    1 groups
 distr:  one band on NCORES_PER_BAND=  24 cores,    3 groups


--------------------------------------------------------------------------------------------------------


 INCAR:
 POTCAR:    PAW_PBE Ni 02Aug2007                  
 POTCAR:    PAW_PBE Fe 06Sep2000                  

 ----------------------------------------------------------------------------- 
|                                                                             |
|           W    W    AA    RRRRR   N    N  II  N    N   GGGG   !!!           |
|           W    W   A  A   R    R  NN   N  II  NN   N  G    G  !!!           |
|           W    W  A    A  R    R  N N  N  II  N N  N  G       !!!           |
|           W WW W  AAAAAA  RRRRR   N  N N  II  N  N N  G  GGG   !            |
|           WW  WW  A    A  R   R   N   NN  II  N   NN  G    G                |
|           W    W  A    A  R    R  N    N  II  N    N   GGGG   !!!           |
|                                                                             |
|      For optimal performance we recommend to set                            |
|        NCORE= 4 - approx SQRT( number of cores)                             |
|      NCORE specifies how many cores store one orbital (NPAR=cpu/NCORE).     |
|      This setting can  greatly improve the performance of VASP for DFT.     |
|      The default,   NCORE=1            might be grossly inefficient         |
|      on modern multi-core architectures or massively parallel machines.     |
|      Do your own testing !!!!                                               |
|      Unfortunately you need to use the default for GW and RPA calculations. |
|      (for HF NCORE is supported but not extensively tested yet)             |
|                                                                             |
 ----------------------------------------------------------------------------- 

 POTCAR:    PAW_PBE Ni 02Aug2007                  
   VRHFIN =Ni:                                                                  
   LEXCH  = PE                                                                  
   EATOM  =  1077.6739 eV,   79.2068 Ry                                         
                                                                                
   TITEL  = PAW_PBE Ni 02Aug2007                                                
   LULTRA =        F    use ultrasoft PP ?                                      
   IUNSCR =        1    unscreen: 0-lin 1-nonlin 2-no                           
   RPACOR =    2.000    partial core radius                                     
   POMASS =   58.690; ZVAL   =   10.000    mass and valenz                      
   RCORE  =    2.300    outmost cutoff radius                                   
   RWIGS  =    2.430; RWIGS  =    1.286    wigner-seitz radius (au A)           
   ENMAX  =  269.532; ENMIN  =  202.149 eV                                      
   RCLOC  =    1.201    cutoff for local pot                                    
   LCOR   =        T    correct aug charges                                     
   LPAW   =        T    paw PP                                                  
   EAUG   =  544.565                                                            
   DEXC   =    0.000                                                            
   RMAX   =    2.357    core radius for proj-oper                               
   RAUG   =    1.300    factor for augmentation sphere                          
   RDEP   =    2.390    radius for radial grids                                 
   RDEPT  =    1.838    core radius for aug-charge                              
                                                                                
   Atomic configuration                                                         
    9 entries                                                                   
     n  l   j            E        occ.                                          
     1  0  0.50     -8206.4253   2.0000                                         
     2  0  0.50      -976.1748   2.0000                                         
     2  1  1.50      -839.0571   6.0000                                         
     3  0  0.50      -105.9991   2.0000                                         
     3  1  1.50       -66.4603   6.0000                                         
     3  2  2.50        -4.6458   9.0000                                         
     4  0  0.50        -4.4926   1.0000                                         
     4  1  1.50        -4.0817   0.0000                                         
     4  3  2.50        -1.3606   0.0000                                         
   Description                                                                  
     l       E           TYP  RCUT    TYP  RCUT                                 
     2     -4.6457903     23  2.300                                             
     2     -6.0063729     23  2.300                                             
     0     -4.4925590     23  2.300                                             
     0      5.0102601     23  2.300                                             
     1     -2.7211652     23  2.300                                             
     1     16.5183231     23  2.300                                             
  local pseudopotential read in
  partial core-charges read in
  partial kinetic energy density read in
  atomic valenz-charges read in
  non local Contribution for L=           2  read in
    real space projection operators read in
  non local Contribution for L=           2  read in
    real space projection operators read in
  non local Contribution for L=           0  read in
    real space projection operators read in
  non local Contribution for L=           0  read in
    real space projection operators read in
  non local Contribution for L=           1  read in
    real space projection operators read in
  non local Contribution for L=           1  read in
    real space projection operators read in
    PAW grid and wavefunctions read in
 
   number of l-projection  operators is LMAX  =           6
   number of lm-projection operators is LMMAX =          18
 
 POTCAR:    PAW_PBE Fe 06Sep2000                  
   VRHFIN =Fe:  d7 s1                                                           
   LEXCH  = PE                                                                  
   EATOM  =   594.3153 eV,   43.6809 Ry                                         
                                                                                
   TITEL  = PAW_PBE Fe 06Sep2000                                                
   LULTRA =        F    use ultrasoft PP ?                                      
   IUNSCR =        1    unscreen: 0-lin 1-nonlin 2-no                           
   RPACOR =    2.000    partial core radius                                     
   POMASS =   55.847; ZVAL   =    8.000    mass and valenz                      
   RCORE  =    2.300    outmost cutoff radius                                   
   RWIGS  =    2.460; RWIGS  =    1.302    wigner-seitz radius (au A)           
   ENMAX  =  267.882; ENMIN  =  200.911 eV                                      
   RCLOC  =    1.701    cutoff for local pot                                    
   LCOR   =        T    correct aug charges                                     
   LPAW   =        T    paw PP                                                  
   EAUG   =  511.368                                                            
   DEXC   =    0.000                                                            
   RMAX   =    2.356    core radius for proj-oper                               
   RAUG   =    1.300    factor for augmentation sphere                          
   RDEP   =    2.442    radius for radial grids                                 
   RDEPT  =    1.890    core radius for aug-charge                              
                                                                                
   Atomic configuration                                                         
    9 entries                                                                   
     n  l   j            E        occ.                                          
     1  0  0.50     -6993.8440   2.0000                                         
     2  0  0.50      -814.6047   2.0000                                         
     2  1  1.50      -693.3689   6.0000                                         
     3  0  0.50       -89.4732   2.0000                                         
     3  1  1.50       -55.6373   6.0000                                         
     3  2  2.50        -3.8151   7.0000                                         
     4  0  0.50        -4.2551   1.0000                                         
     4  1  1.50        -3.4015   0.0000                                         
     4  3  2.50        -1.3606   0.0000                                         
   Description                                                                  
     l       E           TYP  RCUT    TYP  RCUT                                 
     2     -3.8151135     23  2.300                                             
     2     -5.1756961     23  2.300                                             
     0     -4.2550963     23  2.300                                             
     0      7.2035603     23  2.300                                             
     1     -2.7211652     23  2.300                                             
     1     18.4316424     23  2.300                                             
  local pseudopotential read in
  partial core-charges read in
  partial kinetic energy density read in
  atomic valenz-charges read in
  non local Contribution for L=           2  read in
    real space projection operators read in
  non local Contribution for L=           2  read in
    real space projection operators read in
  non local Contribution for L=           0  read in
    real space projection operators read in
  non local Contribution for L=           0  read in
    real space projection operators read in
  non local Contribution for L=           1  read in
    real space projection operators read in
  non local Contribution for L=           1  read in
    real space projection operators read in
    PAW grid and wavefunctions read in
 
   number of l-projection  operators is LMAX  =           6
   number of lm-projection operators is LMMAX =          18
 
 Optimization of the real space projectors (new method)

 maximal supplied QI-value         = 16.25
 optimisation between [QCUT,QGAM] = [ 11.54, 23.24] = [ 37.28,151.24] Ry 
 Optimized for a Real-space Cutoff    1.45 Angstroem

   l    n(q)    QCUT    max X(q) W(low)/X(q) W(high)/X(q)  e(spline) 
   2      9    11.539    60.317    0.19E-03    0.47E-04    0.16E-06
   2      9    11.539    55.921    0.19E-03    0.48E-04    0.16E-06
   0     10    11.539    51.690    0.80E-04    0.50E-04    0.24E-06
   0     10    11.539    30.015    0.73E-04    0.45E-04    0.22E-06
   1     10    11.539    18.849    0.87E-04    0.16E-03    0.71E-07
   1     10    11.539    14.624    0.73E-04    0.13E-03    0.64E-07
 Optimization of the real space projectors (new method)

 maximal supplied QI-value         = 16.25
 optimisation between [QCUT,QGAM] = [ 11.54, 23.24] = [ 37.28,151.24] Ry 
 Optimized for a Real-space Cutoff    1.53 Angstroem

   l    n(q)    QCUT    max X(q) W(low)/X(q) W(high)/X(q)  e(spline) 
   2     10    11.539    80.901    0.11E-03    0.14E-03    0.21E-06
   2     10    11.539    75.754    0.11E-03    0.14E-03    0.22E-06
   0     11    11.539    58.752    0.52E-04    0.18E-04    0.33E-06
   0     11    11.539    30.679    0.44E-04    0.16E-04    0.30E-06
   1     10    11.539    17.977    0.53E-04    0.29E-04    0.13E-06
   1     10    11.539    13.559    0.44E-04    0.25E-04    0.11E-06
  PAW_PBE Ni 02Aug2007                  :
 energy of atom  1       EATOM=-1077.6739
 kinetic energy error for atom=    0.0030 (will be added to EATOM!!)
  PAW_PBE Fe 06Sep2000                  :
 energy of atom  2       EATOM= -594.3153
 kinetic energy error for atom=    0.0026 (will be added to EATOM!!)
 
 
 POSCAR: POSCAR                                  
  positions in direct lattice
  velocities in cartesian coordinates
 exchange correlation table for  LEXCH =        8
   RHO(1)=    0.500       N(1)  =     2000
   RHO(2)=  100.500       N(2)  =     4000
 


--------------------------------------------------------------------------------------------------------


 ion  position               nearest neighbor table
   1  0.999  0.001  0.191-  23 2.50  32 2.50  35 2.51   5 2.52  40 2.52  37 2.52  59 2.53   2 2.53
                             4 2.53  21 2.54  34 2.54  62 2.55
   2  0.248  0.999  0.192-  50 2.47  59 2.48  36 2.48  37 2.50   6 2.50   3 2.51  28 2.52   5 2.52
                            21 2.53   1 2.53   8 2.56  60 2.56
   3  0.499  0.002  0.192-  36 2.49  30 2.50  34 2.51   2 2.51   8 2.52  11 2.52   7 2.53  39 2.54
                            50 2.54  51 2.54  60 2.56  61 2.57
   4  0.998  0.251  0.192-  35 2.49  42 2.49  19 2.50  34 2.50  13 2.50   7 2.53   1 2.53  40 2.53
                            10 2.54  43 2.54   5 2.55  46 2.55
   5  0.249  0.249  0.191-  35 2.48  36 2.48  37 2.50  46 2.50   1 2.52  42 2.52   2 2.52   6 2.53
                            45 2.54  16 2.54   4 2.55  44 2.55
   6  0.335  0.165  0.288-  36 2.47   9 2.48  17 2.48  38 2.50   2 2.50  45 2.50  60 2.52  15 2.52
                            39 2.53   5 2.53  35 2.54  59 2.55
   7  0.749  0.253  0.193-  39 2.48  14 2.49  48 2.49  18 2.50  13 2.51  34 2.51   4 2.53   3 2.53
                            11 2.54  36 2.55  19 2.55  10 2.55
   8  0.418  0.084  0.094-  37 2.49  36 2.51  16 2.51   3 2.52  11 2.52  30 2.53  28 2.53  48 2.56
                             2 2.56
   9  0.418  0.083  0.383-  60 2.45   6 2.48  31 2.49  39 2.49  17 2.51  12 2.51  38 2.52  29 2.53
                            49 2.55
  10  0.834  0.167  0.290-  41 2.46  20 2.47  12 2.48  43 2.49  39 2.50  34 2.51  18 2.52  61 2.52
                            35 2.53  62 2.54   4 2.54   7 2.55
  11  0.668  0.085  0.096-  34 2.51  40 2.51  48 2.51   8 2.52   3 2.52  19 2.53  30 2.54  63 2.54
                             7 2.54
  12  0.667  0.084  0.385-  61 2.46  10 2.48  39 2.48  41 2.51   9 2.51  49 2.52  64 2.52  31 2.53
                            20 2.54
  13  0.999  0.499  0.193-  43 2.50  53 2.50  22 2.50   4 2.50  42 2.51   7 2.51  19 2.52  50 2.52
                            21 2.53  14 2.53  18 2.54  26 2.55
  14  0.748  0.499  0.192-  56 2.48  44 2.48   7 2.49  48 2.49  15 2.50  57 2.52  26 2.52  21 2.52
                            23 2.53  13 2.53  18 2.55  36 2.57
  15  0.585  0.414  0.289-  17 2.47  56 2.47  18 2.47  39 2.48  45 2.49  14 2.50   6 2.52  49 2.53
                            36 2.54  44 2.55  55 2.55  58 2.58
  16  0.420  0.333  0.094-  36 2.51   8 2.51  37 2.52  57 2.52  44 2.52  46 2.53  24 2.54  48 2.54
                             5 2.54
  17  0.417  0.332  0.382-  45 2.43  15 2.47   6 2.48  38 2.51   9 2.51  58 2.52  47 2.53  25 2.53
                            49 2.54
  18  0.830  0.414  0.290-  39 2.46  20 2.46  56 2.46  15 2.47  43 2.48  27 2.48  49 2.49   7 2.50
                            10 2.52  22 2.53  13 2.54  14 2.55
  19  0.919  0.335  0.096-  48 2.49   4 2.50  40 2.51  53 2.51  13 2.52  11 2.53  26 2.54  46 2.54
                             7 2.55
  20  0.919  0.336  0.384-  43 2.42  18 2.46  10 2.47  41 2.51  49 2.51  54 2.52  47 2.53  12 2.54
                            27 2.55
  21  0.998  0.749  0.193-  59 2.46  50 2.48  23 2.48  32 2.50  56 2.51  26 2.52  14 2.52   2 2.53
                            22 2.53  13 2.53   1 2.54  28 2.55
  22  0.081  0.664  0.289-  43 2.48  27 2.49  50 2.49  56 2.50  54 2.50  13 2.50  29 2.50  59 2.51
                            18 2.53  21 2.53  60 2.54  52 2.55
  23  0.753  0.752  0.192-  21 2.48  63 2.49   1 2.50  32 2.51  57 2.52  62 2.53  14 2.53  44 2.54
                            56 2.55  55 2.56  51 2.57  34 2.58
  24  0.417  0.584  0.096-  46 2.49  44 2.50  51 2.51  57 2.52  30 2.52  63 2.53  16 2.54  42 2.56
                            53 2.57
  25  0.415  0.581  0.386-  52 2.45  47 2.49  58 2.50  64 2.51  45 2.52  55 2.53  17 2.53  54 2.56
                            31 2.57
  26  0.916  0.585  0.095-  48 2.48  32 2.48  57 2.50  53 2.51  21 2.52  14 2.52  28 2.53  19 2.54
                            13 2.55
  27  0.912  0.585  0.384-  56 2.43  33 2.48  18 2.48  49 2.49  22 2.49  58 2.51  54 2.53  29 2.54
                            20 2.55
  28  0.167  0.835  0.095-  32 2.48  37 2.49  53 2.50   2 2.52  50 2.53   8 2.53  26 2.53  30 2.54
                            21 2.55
  29  0.164  0.836  0.383-  60 2.46  59 2.48  33 2.48  38 2.49  54 2.50  22 2.50   9 2.53  31 2.53
                            27 2.54
  30  0.417  0.833  0.097-  51 2.49   3 2.50  53 2.52  24 2.52   8 2.53  11 2.54  28 2.54  63 2.54
                            50 2.55
  31  0.415  0.836  0.386-  60 2.46   9 2.49  52 2.49  61 2.49  54 2.51  64 2.51  12 2.53  29 2.53
                            25 2.57
  32  0.920  0.833  0.095-  28 2.48  26 2.48   1 2.50  21 2.50  23 2.51  57 2.53  37 2.54  63 2.54
                            40 2.57
  33  0.917  0.833  0.384-  62 2.47  29 2.48  27 2.48  59 2.52  58 2.53  56 2.53  38 2.55  41 2.56
                            64 2.58
  34  0.749  0.005  0.193-   4 2.50  11 2.51  10 2.51   7 2.51   3 2.51  63 2.54  61 2.54   1 2.54
                            62 2.55  51 2.55  40 2.57  23 2.58
  35  0.085  0.169  0.286-   5 2.48   4 2.49   1 2.51  10 2.53  45 2.54  38 2.54   6 2.54  43 2.54
                            62 2.55  41 2.56  59 2.57  47 2.59
  36  0.493  0.245  0.192-   6 2.47   5 2.48   2 2.48   3 2.49   8 2.51  16 2.51  44 2.52  15 2.54
                             7 2.55  39 2.55  14 2.57  48 2.57
  37  0.171  0.083  0.095-  28 2.49   8 2.49   2 2.50   5 2.50  16 2.52   1 2.52  32 2.54  46 2.57
                            40 2.58
  38  0.169  0.085  0.384-  29 2.49   6 2.50  17 2.51   9 2.52  47 2.52  35 2.54  33 2.55  59 2.55
                            41 2.56
  39  0.588  0.169  0.289-  18 2.46   7 2.48  15 2.48  12 2.48   9 2.49  10 2.50  61 2.51   6 2.53
                             3 2.54  49 2.54  36 2.55  60 2.58
  40  0.917  0.086  0.094-  19 2.51  11 2.51   1 2.52  63 2.53   4 2.53  46 2.55  34 2.57  32 2.57
                            37 2.58
  41  0.916  0.086  0.385-  10 2.46  20 2.51  12 2.51  62 2.51  47 2.53  38 2.56  33 2.56  35 2.56
                            64 2.57
  42  0.246  0.497  0.194-   4 2.49  13 2.51  46 2.51   5 2.52  43 2.53  53 2.54  45 2.54  51 2.55
                            52 2.56  24 2.56  44 2.58  50 2.59
  43  0.077  0.416  0.290-  20 2.42  18 2.48  22 2.48  10 2.49  13 2.50  42 2.53   4 2.54  52 2.54
                            35 2.54  47 2.56  54 2.56  45 2.66
  44  0.503  0.500  0.191-  14 2.48  57 2.49  24 2.50  36 2.52  16 2.52  45 2.53  23 2.54   5 2.55
                            15 2.55  51 2.55  55 2.58  42 2.58
  45  0.340  0.415  0.289-  17 2.43  15 2.49   6 2.50  25 2.52  55 2.53  44 2.53  35 2.54  52 2.54
                             5 2.54  42 2.54  47 2.56  43 2.66
  46  0.171  0.337  0.096-  24 2.49   5 2.50  42 2.51  16 2.53  19 2.54   4 2.55  53 2.55  40 2.55
                            37 2.57
  47  0.169  0.334  0.387-  25 2.49  38 2.52  17 2.53  41 2.53  20 2.53  43 2.56  45 2.56  35 2.59
                            54 2.59
  48  0.673  0.336  0.096-  26 2.48  19 2.49  14 2.49   7 2.49  11 2.51  57 2.53  16 2.54   8 2.56
                            36 2.57
  49  0.670  0.335  0.387-  27 2.49  18 2.49  20 2.51  12 2.52  15 2.53  17 2.54  39 2.54   9 2.55
                            58 2.55
  50  0.245  0.753  0.193-   2 2.47  21 2.48  22 2.49  53 2.51  60 2.51  13 2.52  28 2.53   3 2.54
                            30 2.55  51 2.57  42 2.59  52 2.61
  51  0.498  0.750  0.193-  30 2.49  24 2.51  63 2.52   3 2.54  44 2.55  34 2.55  42 2.55  61 2.56
                            55 2.57  23 2.57  52 2.57  50 2.57
  52  0.333  0.663  0.293-  25 2.45  31 2.49  54 2.49  60 2.54  45 2.54  43 2.54  22 2.55  61 2.55
                            55 2.55  42 2.56  51 2.57  50 2.61
  53  0.165  0.586  0.097-  13 2.50  28 2.50  50 2.51  26 2.51  19 2.51  30 2.52  42 2.54  46 2.55
                            24 2.57
  54  0.165  0.589  0.387-  52 2.49  22 2.50  29 2.50  31 2.51  20 2.52  27 2.53  43 2.56  25 2.56
                            47 2.59
  55  0.588  0.668  0.291-  58 2.49  62 2.49  56 2.50  64 2.52  25 2.53  45 2.53  52 2.55  15 2.55
                            23 2.56  61 2.56  51 2.57  44 2.58
  56  0.830  0.658  0.289-  27 2.43  18 2.46  15 2.47  14 2.48  22 2.50  55 2.50  21 2.51  33 2.53
                            23 2.55  59 2.56  58 2.57  62 2.58
  57  0.668  0.584  0.095-  44 2.49  26 2.50  63 2.51  23 2.52  14 2.52  16 2.52  24 2.52  32 2.53
                            48 2.53
  58  0.664  0.585  0.388-  55 2.49  25 2.50  27 2.51  64 2.51  17 2.52  33 2.53  49 2.55  56 2.57
                            15 2.58
  59  0.082  0.913  0.287-  21 2.46  29 2.48   2 2.48  22 2.51  62 2.52  33 2.52  60 2.52   1 2.53
                             6 2.55  38 2.55  56 2.56  35 2.57
  60  0.332  0.915  0.291-   9 2.45  29 2.46  31 2.46  61 2.51  50 2.51   6 2.52  59 2.52  22 2.54
                            52 2.54   3 2.56   2 2.56  39 2.58
  61  0.583  0.919  0.291-  12 2.46  31 2.49  60 2.51  39 2.51  64 2.52  10 2.52  34 2.54  52 2.55
                            62 2.55  55 2.56  51 2.56   3 2.57
  62  0.834  0.916  0.289-  33 2.47  55 2.49  41 2.51  59 2.52  23 2.53  10 2.54  35 2.55  34 2.55
                             1 2.55  61 2.55  56 2.58  64 2.59
  63  0.668  0.834  0.097-  23 2.49  57 2.51  51 2.52  40 2.53  24 2.53  30 2.54  34 2.54  11 2.54
                            32 2.54
  64  0.661  0.832  0.388-  31 2.51  25 2.51  58 2.51  61 2.52  12 2.52  55 2.52  41 2.57  33 2.58
                            62 2.59
 

IMPORTANT INFORMATION: All symmetrisations will be switched off!
NOSYMM: (Re-)initialisation of all symmetry stuff for point group C_1.

 
 

Automatic generation of k-mesh.
 generate k-points for:    4    4    2
Space group operators:
 irot       det(A)        alpha          n_x          n_y          n_z        tau_x        tau_y        tau_z
    1     1.000000     0.000001     1.000000     0.000000     0.000000     0.000000     0.000000     0.000000
 
 Subroutine IBZKPT returns following result:
 ===========================================
 
 Found     20 irreducible k-points:
 
 Following reciprocal coordinates:
            Coordinates               Weight
  0.000000  0.000000  0.000000      1.000000
  0.250000  0.000000  0.000000      2.000000
  0.500000  0.000000  0.000000      1.000000
  0.000000  0.250000  0.000000      2.000000
  0.250000  0.250000  0.000000      2.000000
  0.500000  0.250000  0.000000      2.000000
 -0.250000  0.250000  0.000000      2.000000
  0.000000  0.500000  0.000000      1.000000
  0.250000  0.500000  0.000000      2.000000
  0.500000  0.500000  0.000000      1.000000
  0.000000  0.000000  0.500000      1.000000
  0.250000  0.000000  0.500000      2.000000
  0.500000  0.000000  0.500000      1.000000
  0.000000  0.250000  0.500000      2.000000
  0.250000  0.250000  0.500000      2.000000
  0.500000  0.250000  0.500000      2.000000
 -0.250000  0.250000  0.500000      2.000000
  0.000000  0.500000  0.500000      1.000000
  0.250000  0.500000  0.500000      2.000000
  0.500000  0.500000  0.500000      1.000000
 
 Following cartesian coordinates:
            Coordinates               Weight
  0.000000  0.000000  0.000000      1.000000
  0.024752  0.014290  0.000000      2.000000
  0.049503  0.028581  0.000000      1.000000
  0.000000  0.028581  0.000000      2.000000
  0.024752  0.042871  0.000000      2.000000
  0.049503  0.057162  0.000000      2.000000
 -0.024752  0.014290  0.000000      2.000000
  0.000000  0.057162  0.000000      1.000000
  0.024752  0.071452  0.000000      2.000000
  0.049503  0.085742  0.000000      1.000000
  0.000000  0.000000  0.023525      1.000000
  0.024752  0.014290  0.023525      2.000000
  0.049503  0.028581  0.023525      1.000000
  0.000000  0.028581  0.023525      2.000000
  0.024752  0.042871  0.023525      2.000000
  0.049503  0.057162  0.023525      2.000000
 -0.024752  0.014290  0.023525      2.000000
  0.000000  0.057162  0.023525      1.000000
  0.024752  0.071452  0.023525      2.000000
  0.049503  0.085742  0.023525      1.000000
 
 TETIRR: Found     96 inequivalent tetrahedra from      192


--------------------------------------------------------------------------------------------------------




 Dimension of arrays:
   k-points           NKPTS =     20   k-points in BZ     NKDIM =     20   number of bands    NBANDS=    411
   number of dos      NEDOS =    301   number of ions     NIONS =     64
   non local maximal  LDIM  =      6   non local SUM 2l+1 LMDIM =     18
   total plane-waves  NPLWV = ******
   max r-space proj   IRMAX =   8292   max aug-charges    IRDMAX=  19623
   dimension x,y,z NGX =    80 NGY =   80 NGZ =  160
   dimension x,y,z NGXF=   160 NGYF=  160 NGZF=  320
   support grid    NGXF=   160 NGYF=  160 NGZF=  320
   ions per type =              33  31
   NGX,Y,Z   is equivalent  to a cutoff of  13.17, 13.17, 12.52 a.u.
   NGXF,Y,Z  is equivalent  to a cutoff of  26.34, 26.34, 25.03 a.u.

 SYSTEM =  SQS-NiFe                                
 POSCAR =  POSCAR                                  

 Startparameter for this run:
   NWRITE =      2    write-flag & timer
   PREC   = accura    normal or accurate (medium, high low for compatibility)
   ISTART =      0    job   : 0-new  1-cont  2-samecut
   ICHARG =     11    charge: 1-file 2-atom 10-const
   ISPIN  =      2    spin polarized calculation?
   LNONCOLLINEAR =      F non collinear calculations
   LSORBIT =      F    spin-orbit coupling
   INIWAV =      1    electr: 0-lowe 1-rand  2-diag
   LASPH  =      F    aspherical Exc in radial PAW
   METAGGA=      F    non-selfconsistent MetaGGA calc.

 Electronic Relaxation 1
   ENCUT  =  520.0 eV  38.22 Ry    6.18 a.u.  18.78 18.78 39.52*2*pi/ulx,y,z
   ENINI  =  520.0     initial cutoff
   ENAUG  =  544.6 eV  augmentation charge cutoff
   NELM   =    200;   NELMIN=  2; NELMDL= -5     # of ELM steps 
   EDIFF  = 0.1E-05   stopping-criterion for ELM
   LREAL  =      T    real-space projection
   NLSPLINE    = F    spline interpolate recip. space projectors
   LCOMPAT=      F    compatible to vasp.4.4
   GGA_COMPAT  = T    GGA compatible to vasp.4.4-vasp.4.6
   LMAXPAW     = -100 max onsite density
   LMAXMIX     =    2 max onsite mixed and CHGCAR
   VOSKOWN=      0    Vosko Wilk Nusair interpolation
   ROPT   =   -0.00025  -0.00025
 Ionic relaxation
   EDIFFG = -.2E-01   stopping-criterion for IOM
   NSW    =      0    number of steps for IOM
   NBLOCK =      1;   KBLOCK =      1    inner block; outer block 
   IBRION =     -1    ionic relax: 0-MD 1-quasi-New 2-CG
   NFREE  =      0    steps in history (QN), initial steepest desc. (CG)
   ISIF   =      2    stress and relaxation
   IWAVPR =     10    prediction:  0-non 1-charg 2-wave 3-comb
   ISYM   =      0    0-nonsym 1-usesym 2-fastsym
   LCORR  =      T    Harris-Foulkes like correction to forces

   POTIM  = 0.5000    time-step for ionic-motion
   TEIN   =    0.0    initial temperature
   TEBEG  =    0.0;   TEEND  =   0.0 temperature during run
   SMASS  =  -3.00    Nose mass-parameter (am)
   estimated Nose-frequenzy (Omega)   =  0.10E-29 period in steps =****** mass=  -0.233E-26a.u.
   SCALEE = 1.0000    scale energy and forces
   NPACO  =    256;   APACO  = 16.0  distance and # of slots for P.C.
   PSTRESS=    0.0 pullay stress

  Mass of Ions in am
   POMASS =  58.69 55.85
  Ionic Valenz
   ZVAL   =  10.00  8.00
  Atomic Wigner-Seitz radii
   RWIGS  =  -1.00 -1.00
  virtual crystal weights 
   VCA    =   1.00  1.00
   NELECT =     578.0000    total number of electrons
   NUPDOWN=      -1.0000    fix difference up-down

 DOS related values:
   EMIN   =  10.00;   EMAX   =-10.00  energy-range for DOS
   EFERMI =   0.00
   ISMEAR =    -5;   SIGMA  =   0.20  broadening in eV -4-tet -1-fermi 0-gaus

 Electronic relaxation 2 (details)
   IALGO  =     68    algorithm
   LDIAG  =      T    sub-space diagonalisation (order eigenvalues)
   LSUBROT=      F    optimize rotation matrix (better conditioning)
   TURBO    =      0    0=normal 1=particle mesh
   IRESTART =      0    0=no restart 2=restart with 2 vectors
   NREBOOT  =      0    no. of reboots
   NMIN     =      0    reboot dimension
   EREF     =   0.00    reference energy to select bands
   IMIX   =      4    mixing-type and parameters
     AMIX     =   0.40;   BMIX     =  1.00
     AMIX_MAG =   1.60;   BMIX_MAG =  1.00
     AMIN     =   0.10
     WC   =   100.;   INIMIX=   1;  MIXPRE=   1;  MAXMIX= -45

 Intra band minimization:
   WEIMIN = 0.0000     energy-eigenvalue tresh-hold
   EBREAK =  0.61E-09  absolut break condition
   DEPER  =   0.30     relativ break condition  

   TIME   =   0.40     timestep for ELM

  volume/ion in A,a.u.               =      29.34       197.99
  Fermi-wavevector in a.u.,A,eV,Ry     =   1.105364  2.088835 16.623995  1.221829
  Thomas-Fermi vector in A             =   2.241850
 
 Write flags
   LWAVE        =      F    write WAVECAR
   LDOWNSAMPLE  =      F    k-point downsampling of WAVECAR
   LCHARG       =      F    write CHGCAR
   LVTOT        =      F    write LOCPOT, total local potential
   LVHAR        =      F    write LOCPOT, Hartree potential only
   LELF         =      F    write electronic localiz. function (ELF)
   LORBIT       =     11    0 simple, 1 ext, 2 COOP (PROOUT), +10 PAW based schemes


 Dipole corrections
   LMONO  =      F    monopole corrections only (constant potential shift)
   LDIPOL =      T    correct potential (dipole corrections)
   IDIPOL =      3    1-x, 2-y, 3-z, 4-all directions 
   EPSILON=  1.0000000 bulk dielectric constant

 Exchange correlation treatment:
   GGA     =    --    GGA type
   LEXCH   =     8    internal setting for exchange type
   VOSKOWN=      0    Vosko Wilk Nusair interpolation
   LHFCALC =     F    Hartree Fock is set to
   LHFONE  =     F    Hartree Fock one center treatment
   AEXX    =    0.0000 exact exchange contribution

 Linear response parameters
   LEPSILON=     F    determine dielectric tensor
   LRPA    =     F    only Hartree local field effects (RPA)
   LNABLA  =     F    use nabla operator in PAW spheres
   LVEL    =     F    velocity operator in full k-point grid
   LINTERFAST=   F  fast interpolation
   KINTER  =     0    interpolate to denser k-point grid
   CSHIFT  =0.1000    complex shift for real part using Kramers Kronig
   OMEGAMAX=  -1.0    maximum frequency
   DEG_THRESHOLD= 0.2000000E-02 threshold for treating states as degnerate
   RTIME   =   -0.100 relaxation time in fs
  (WPLASMAI=    0.000 imaginary part of plasma frequency in eV, 0.658/RTIME)
   DFIELD  = 0.0000000 0.0000000 0.0000000 field for delta impulse in time
 
 Orbital magnetization related:
   ORBITALMAG=     F  switch on orbital magnetization
   LCHIMAG   =     F  perturbation theory with respect to B field
   DQ        =  0.001000  dq finite difference perturbation B field
   LLRAUG    =     F  two centre corrections for induced B field



--------------------------------------------------------------------------------------------------------


 Static calculation
 charge density and potential remain constant during run
 spin polarized calculation
 RMM-DIIS sequential band-by-band and
  variant of blocked Davidson during initial phase
 perform sub-space diagonalisation
    before iterative eigenvector-optimisation
 no mixing
 using additional bands          122
 real space projection scheme for non local part
 use partial core corrections
 calculate Harris-corrections to forces 
   (improved forces if not selfconsistent)
 use gradient corrections 
 WARNING: stress and forces are not correct
  (second derivative of E(xc) not defined)
 use of overlap-Matrix (Vanderbilt PP)
 Fermi weights with tetrahedron method with Bloechl corrections


--------------------------------------------------------------------------------------------------------


  energy-cutoff  :      520.00
  volume of cell :     1877.74
      direct lattice vectors                 reciprocal lattice vectors
    10.100310000  0.000000000  0.000000000     0.099006862  0.057161638  0.000000000
    -5.050155000  8.747125050  0.000000000     0.000000000  0.114323277  0.000000000
     0.000000000  0.000000000 21.253798980     0.000000000  0.000000000  0.047050412

  length of vectors
    10.100310000 10.100310003 21.253798980     0.114323277  0.114323277  0.047050412


 
 k-points in units of 2pi/SCALE and weight: read from INCAR                         
   0.00000000  0.00000000  0.00000000       0.031
   0.02475172  0.01429041  0.00000000       0.062
   0.04950343  0.02858082  0.00000000       0.031
   0.00000000  0.02858082  0.00000000       0.062
   0.02475172  0.04287123  0.00000000       0.062
   0.04950343  0.05716164  0.00000000       0.062
  -0.02475172  0.01429041  0.00000000       0.062
   0.00000000  0.05716164  0.00000000       0.031
   0.02475172  0.07145205  0.00000000       0.062
   0.04950343  0.08574246  0.00000000       0.031
   0.00000000  0.00000000  0.02352521       0.031
   0.02475172  0.01429041  0.02352521       0.062
   0.04950343  0.02858082  0.02352521       0.031
   0.00000000  0.02858082  0.02352521       0.062
   0.02475172  0.04287123  0.02352521       0.062
   0.04950343  0.05716164  0.02352521       0.062
  -0.02475172  0.01429041  0.02352521       0.062
   0.00000000  0.05716164  0.02352521       0.031
   0.02475172  0.07145205  0.02352521       0.062
   0.04950343  0.08574246  0.02352521       0.031
 
 k-points in reciprocal lattice and weights: read from INCAR                         
   0.00000000  0.00000000  0.00000000       0.031
   0.25000000  0.00000000  0.00000000       0.062
   0.50000000  0.00000000  0.00000000       0.031
   0.00000000  0.25000000  0.00000000       0.062
   0.25000000  0.25000000  0.00000000       0.062
   0.50000000  0.25000000  0.00000000       0.062
  -0.25000000  0.25000000  0.00000000       0.062
   0.00000000  0.50000000  0.00000000       0.031
   0.25000000  0.50000000  0.00000000       0.062
   0.50000000  0.50000000  0.00000000       0.031
   0.00000000  0.00000000  0.50000000       0.031
   0.25000000  0.00000000  0.50000000       0.062
   0.50000000  0.00000000  0.50000000       0.031
   0.00000000  0.25000000  0.50000000       0.062
   0.25000000  0.25000000  0.50000000       0.062
   0.50000000  0.25000000  0.50000000       0.062
  -0.25000000  0.25000000  0.50000000       0.062
   0.00000000  0.50000000  0.50000000       0.031
   0.25000000  0.50000000  0.50000000       0.062
   0.50000000  0.50000000  0.50000000       0.031
 
 position of ions in fractional coordinates (direct lattice) 
   0.99904300  0.00064200  0.19052303
   0.24849100  0.99862800  0.19205463
   0.49902500  0.00192700  0.19180553
   0.99813900  0.25067400  0.19194230
   0.24921500  0.24886200  0.19118596
   0.33461386  0.16487469  0.28792957
   0.74893500  0.25278100  0.19317475
   0.41837500  0.08394000  0.09411799
   0.41754032  0.08331073  0.38287485
   0.83382202  0.16668346  0.29034930
   0.66797000  0.08472300  0.09569325
   0.66707578  0.08445348  0.38451699
   0.99908600  0.49910800  0.19304001
   0.74816900  0.49871100  0.19204590
   0.58535506  0.41398011  0.28893412
   0.41961000  0.33337100  0.09413982
   0.41749334  0.33216495  0.38216811
   0.83014922  0.41388692  0.29024965
   0.91855900  0.33501600  0.09568743
   0.91879482  0.33562789  0.38363986
   0.99765800  0.74896900  0.19256042
   0.08090657  0.66389106  0.28934230
   0.75346500  0.75172800  0.19162859
   0.41737300  0.58352400  0.09623425
   0.41463458  0.58132190  0.38583615
   0.91550800  0.58461900  0.09542872
   0.91210546  0.58476454  0.38361341
   0.16682900  0.83490800  0.09456674
   0.16424923  0.83647324  0.38333368
   0.41715300  0.83338800  0.09679270
   0.41451869  0.83572825  0.38582413
   0.91985100  0.83263700  0.09539845
   0.91651741  0.83291479  0.38366759
   0.74918200  0.00453800  0.19311305
   0.08496426  0.16873964  0.28606004
   0.49319000  0.24544000  0.19167806
   0.17139600  0.08339300  0.09535888
   0.16880407  0.08477604  0.38357270
   0.58771376  0.16938992  0.28915879
   0.91693100  0.08581500  0.09410082
   0.91618178  0.08615549  0.38458117
   0.24596400  0.49669300  0.19369944
   0.07663564  0.41614980  0.29017835
   0.50297300  0.49962100  0.19096333
   0.33999616  0.41544507  0.28918304
   0.17081400  0.33724200  0.09550526
   0.16860431  0.33418928  0.38686631
   0.67264700  0.33598100  0.09600347
   0.66992884  0.33520321  0.38720892
   0.24490500  0.75270000  0.19343637
   0.49840300  0.74988300  0.19260698
   0.33264639  0.66330559  0.29254162
   0.16470600  0.58627100  0.09733079
   0.16464553  0.58900645  0.38723087
   0.58771025  0.66802981  0.29064983
   0.83049879  0.65808747  0.28860880
   0.66762500  0.58426200  0.09519882
   0.66384784  0.58480309  0.38783370
   0.08214462  0.91334751  0.28663538
   0.33242647  0.91474374  0.29082949
   0.58259688  0.91856153  0.29112074
   0.83380574  0.91558513  0.28944234
   0.66841400  0.83351100  0.09659831
   0.66105608  0.83213983  0.38817020
 
 position of ions in cartesian coordinates  (Angst):
  10.08740180  0.00561565  4.04933818
  -2.53339006  8.73512399  4.08189050
   5.03057555  0.01685571  4.07659618
   8.81557077  2.19267682  4.07950306
   1.26035708  2.17682703  4.06342796
   2.54706100  1.44217957  6.11959716
   6.28789244  2.21110702  4.10569730
   3.80180719  0.73423368  2.00036484
   3.79655452  0.72872938  8.13754508
   7.58008352  1.45800109  6.17102568
   6.31883979  0.74108268  2.03384510
   6.31116904  0.73872516  8.17244690
   7.57050555  4.36576009  4.10283357
   5.03817098  4.36228748  4.08170495
   3.82160386  3.62113575  6.14094769
   2.55461586  2.91603783  2.00082881
   2.53932765  2.90548838  8.12252408
   6.29457141  3.62032062  6.16890780
   7.58584793  2.93042685  2.03372140
   7.58513963  2.93577915  8.15380441
   6.29424553  6.55132550  4.09264046
  -2.53557131  5.80713810  6.14962314
   3.81388716  6.57545882  4.07283553
   1.26871004  5.10415740  2.04534340
   1.25217210  5.08489535  8.20048397
   6.29449804  5.11373550  2.02822283
   6.25939640  5.11500851  8.15324222
  -2.53139019  7.30304468  2.00990248
  -2.56535142  7.31673604  8.14729708
   0.00463604  7.28974905  2.05721259
  -0.03378992  7.31021948  8.20022858
   5.08583435  7.28317996  2.02757948
   5.05076114  7.28560985  8.15439375
   7.54405284  0.03969445  4.10438595
   0.00600405  1.47598669  6.07986262
   3.74186185  2.14689437  4.07388696
   1.31000516  0.72944900  2.02673847
   1.27684129  0.74154665  8.15237696
   5.08064582  1.48167480  6.14572287
   8.82790830  0.75063454  1.99999991
   8.81862144  0.75361280  8.17381077
  -0.02406399  4.34463578  4.11684896
  -1.32757722  3.64011433  6.16739227
   2.55701973  4.37024736  4.05869623
   1.33600456  3.63395002  6.14623814
   0.02214998  2.94989795  2.02984960
   0.01524814  2.92319539  8.22237875
   5.09718709  2.93886782  2.04043845
   5.07366078  2.93206439  8.22966052
  -1.32763525  6.58396103  4.11125772
   1.24699942  6.55932037  4.09363004
   0.01003565  5.80201695  6.21762083
  -1.29717776  5.12818575  2.06864905
  -1.31160304  5.15211310  8.23012698
   2.56240160  5.84334032  6.17741316
   5.06485147  5.75637341  6.13403340
   3.79260580  5.11061278  2.02333658
   3.75172280  5.11534572  8.24293940
  -3.78286035  7.98916486  6.09209079
  -1.26198727  8.00137788  6.18123159
   1.24553102  8.03477258  6.18742165
   3.79784966  8.00873764  6.15174926
   2.54182886  7.29082495  2.05308106
   2.47443628  7.27883111  8.25009131
 


--------------------------------------------------------------------------------------------------------


 k-point  1 :   0.0000 0.0000 0.0000  plane waves:   50641
 k-point  2 :   0.2500 0.0000 0.0000  plane waves:   50515
 k-point  3 :   0.5000 0.0000 0.0000  plane waves:   50582
 k-point  4 :   0.0000 0.2500 0.0000  plane waves:   50515
 k-point  5 :   0.2500 0.2500 0.0000  plane waves:   50569
 k-point  6 :   0.5000 0.2500 0.0000  plane waves:   50569
 k-point  7 :  -0.2500 0.2500 0.0000  plane waves:   50515
 k-point  8 :   0.0000 0.5000 0.0000  plane waves:   50582
 k-point  9 :   0.2500 0.5000 0.0000  plane waves:   50569
 k-point 10 :   0.5000 0.5000 0.0000  plane waves:   50582
 k-point 11 :   0.0000 0.0000 0.5000  plane waves:   50528
 k-point 12 :   0.2500 0.0000 0.5000  plane waves:   50544
 k-point 13 :   0.5000 0.0000 0.5000  plane waves:   50564
 k-point 14 :   0.0000 0.2500 0.5000  plane waves:   50544
 k-point 15 :   0.2500 0.2500 0.5000  plane waves:   50528
 k-point 16 :   0.5000 0.2500 0.5000  plane waves:   50528
 k-point 17 :  -0.2500 0.2500 0.5000  plane waves:   50544
 k-point 18 :   0.0000 0.5000 0.5000  plane waves:   50564
 k-point 19 :   0.2500 0.5000 0.5000  plane waves:   50528
 k-point 20 :   0.5000 0.5000 0.5000  plane waves:   50564

 maximum and minimum number of plane-waves per node :      2132     2072

 maximum number of plane-waves:     50641
 maximum index in each direction: 
   IXMAX=   19   IYMAX=   18   IZMAX=   39
   IXMIN=  -19   IYMIN=  -19   IZMIN=  -40


 real space projection operators:
  total allocation   :      65955.66 KBytes
  max/ min on nodes  :       3323.81       2397.94


 parallel 3D FFT for wavefunctions:
    minimum data exchange during FFTs selected (reduces bandwidth)
 parallel 3D FFT for charge:
    minimum data exchange during FFTs selected (reduces bandwidth)


 total amount of memory used by VASP MPI-rank0   256925. kBytes
=======================================================================

   base      :      30000. kBytes
   nonlr-proj:      13007. kBytes
   fftplans  :       6403. kBytes
   grid      :      16455. kBytes
   one-center:         93. kBytes
   wavefun   :     190967. kBytes
 
     INWAV:  cpu time    0.0000: real time    0.0002
 initial charge density was supplied:
 number of electron     578.0000083 magnetization     105.9540240
 keeping initial charge density in first step


--------------------------------------------------------------------------------------------------------


 Maximum index for non-local projection operator          761
 Maximum index for augmentation-charges         1120 (set IRDMAX)


--------------------------------------------------------------------------------------------------------


 First call to EWALD:  gamma=   0.144
 Maximum number of real-space cells 4x 4x 2
 Maximum number of reciprocal cells 2x 2x 4

    FEWALD:  cpu time    0.0050: real time    0.0045


--------------------------------------- Iteration      1(   1)  ---------------------------------------


    POTLOK:  cpu time    0.2500: real time    0.2555
    SETDIJ:  cpu time    0.0190: real time    0.0197
     EDDAV:  cpu time   98.6390: real time   99.2473
 BZINTS: Fermi energy: 10.819008;578.000000 electrons
         Band energy:3578.031634;  BLOECHL correction: -0.014555
       DOS:  cpu time    0.2000: real time    0.2002
    --------------------------------------------
      LOOP:  cpu time   99.1079: real time   99.7227

 eigenvalue-minimisations  : 32880
 total energy-change (2. order) : 0.4469030E+04  (-0.2480224E+05)
 number of electron     578.0000083 magnetization     105.9540240
 augmentation part      578.0000083 magnetization     105.9540240

 DIPCOR: dipole corrections for dipol
 direction  3 min pos   238,
 dipolmoment           0.000000      0.000000     -0.021985 electrons x Angstroem
 Tr[quadrupol]     -9754.506370

 energy correction for charged system         0.000000 eV
 dipol+quadrupol energy correction           -0.000023 eV
 added-field ion interaction         -0.024970 eV  (added to PSCEN)


 Free energy of the ion-electron system (eV)
  ---------------------------------------------------
  alpha Z        PSCENC =      1342.40351117
  Ewald energy   TEWEN  =    187821.91326209
  -Hartree energ DENC   =   -240867.86373536
  -exchange      EXHF   =         0.00000000
  -V(xc)+E(xc)   XCENC  =      1147.00171724
  PAW double counting   =     58480.48464408   -61019.77399743
  entropy T*S    EENTRO =         0.00000000
  eigenvalues    EBANDS =      3578.03163393
  atomic energy  EATOM  =     53986.83344209
  Solvation  Ediel_sol  =         0.00000000
  ---------------------------------------------------
  free energy    TOTEN  =      4469.03047781 eV

  energy without entropy =     4469.03047781  energy(sigma->0) =     4469.03047781


--------------------------------------------------------------------------------------------------------




--------------------------------------- Iteration      1(   2)  ---------------------------------------


     EDDAV:  cpu time   99.8208: real time  100.8233
 BZINTS: Fermi energy:  1.169839;578.000000 electrons
         Band energy:-877.017963;  BLOECHL correction: -0.008686
       DOS:  cpu time    0.1980: real time    0.1983
    --------------------------------------------
      LOOP:  cpu time  100.0188: real time  101.0215

 eigenvalue-minimisations  : 32880
 total energy-change (2. order) :-0.4455050E+04  (-0.4171991E+04)
 number of electron     578.0000083 magnetization     105.9540240
 augmentation part      578.0000083 magnetization     105.9540240

 DIPCOR: dipole corrections for dipol
 direction  3 min pos   238,
 dipolmoment           0.000000      0.000000     -0.021985 electrons x Angstroem
 Tr[quadrupol]     -9754.506370

 energy correction for charged system         0.000000 eV
 dipol+quadrupol energy correction           -0.000023 eV
 added-field ion interaction         -0.024970 eV  (added to PSCEN)


 Free energy of the ion-electron system (eV)
  ---------------------------------------------------
  alpha Z        PSCENC =      1342.40351117
  Ewald energy   TEWEN  =    187821.91326209
  -Hartree energ DENC   =   -240867.86373536
  -exchange      EXHF   =         0.00000000
  -V(xc)+E(xc)   XCENC  =      1147.00171724
  PAW double counting   =     58480.48464408   -61019.77399743
  entropy T*S    EENTRO =         0.00000000
  eigenvalues    EBANDS =      -877.01796329
  atomic energy  EATOM  =     53986.83344209
  Solvation  Ediel_sol  =         0.00000000
  ---------------------------------------------------
  free energy    TOTEN  =        13.98088059 eV

  energy without entropy =       13.98088059  energy(sigma->0) =       13.98088059


--------------------------------------------------------------------------------------------------------




--------------------------------------- Iteration      1(   3)  ---------------------------------------


     EDDAV:  cpu time  101.4666: real time  102.0007
 BZINTS: Fermi energy:  0.053251;578.000000 electrons
         Band energy:***********;  BLOECHL correction: -0.129696
       DOS:  cpu time    0.1970: real time    0.1971
    --------------------------------------------
      LOOP:  cpu time  101.6635: real time  102.1979

 eigenvalue-minimisations  : 34116
 total energy-change (2. order) :-0.4116828E+03  (-0.3531848E+03)
 number of electron     578.0000083 magnetization     105.9540240
 augmentation part      578.0000083 magnetization     105.9540240

 DIPCOR: dipole corrections for dipol
 direction  3 min pos   238,
 dipolmoment           0.000000      0.000000     -0.021985 electrons x Angstroem
 Tr[quadrupol]     -9754.506370

 energy correction for charged system         0.000000 eV
 dipol+quadrupol energy correction           -0.000023 eV
 added-field ion interaction         -0.024970 eV  (added to PSCEN)


 Free energy of the ion-electron system (eV)
  ---------------------------------------------------
  alpha Z        PSCENC =      1342.40351117
  Ewald energy   TEWEN  =    187821.91326209
  -Hartree energ DENC   =   -240867.86373536
  -exchange      EXHF   =         0.00000000
  -V(xc)+E(xc)   XCENC  =      1147.00171724
  PAW double counting   =     58480.48464408   -61019.77399743
  entropy T*S    EENTRO =         0.00000000
  eigenvalues    EBANDS =     -1288.70075076
  atomic energy  EATOM  =     53986.83344209
  Solvation  Ediel_sol  =         0.00000000
  ---------------------------------------------------
  free energy    TOTEN  =      -397.70190688 eV

  energy without entropy =     -397.70190688  energy(sigma->0) =     -397.70190688


--------------------------------------------------------------------------------------------------------




--------------------------------------- Iteration      1(   4)  ---------------------------------------


     EDDAV:  cpu time  102.1105: real time  102.5069
 BZINTS: Fermi energy:  0.017123;578.000000 electrons
         Band energy:***********;  BLOECHL correction: -0.129594
       DOS:  cpu time    0.1880: real time    0.1906
    --------------------------------------------
      LOOP:  cpu time  102.2984: real time  102.6975

 eigenvalue-minimisations  : 34971
 total energy-change (2. order) :-0.1688946E+02  (-0.1653352E+02)
 number of electron     578.0000083 magnetization     105.9540240
 augmentation part      578.0000083 magnetization     105.9540240

 DIPCOR: dipole corrections for dipol
 direction  3 min pos   238,
 dipolmoment           0.000000      0.000000     -0.021985 electrons x Angstroem
 Tr[quadrupol]     -9754.506370

 energy correction for charged system         0.000000 eV
 dipol+quadrupol energy correction           -0.000023 eV
 added-field ion interaction         -0.024970 eV  (added to PSCEN)


 Free energy of the ion-electron system (eV)
  ---------------------------------------------------
  alpha Z        PSCENC =      1342.40351117
  Ewald energy   TEWEN  =    187821.91326209
  -Hartree energ DENC   =   -240867.86373536
  -exchange      EXHF   =         0.00000000
  -V(xc)+E(xc)   XCENC  =      1147.00171724
  PAW double counting   =     58480.48464408   -61019.77399743
  entropy T*S    EENTRO =         0.00000000
  eigenvalues    EBANDS =     -1305.59020975
  atomic energy  EATOM  =     53986.83344209
  Solvation  Ediel_sol  =         0.00000000
  ---------------------------------------------------
  free energy    TOTEN  =      -414.59136588 eV

  energy without entropy =     -414.59136588  energy(sigma->0) =     -414.59136588


--------------------------------------------------------------------------------------------------------




--------------------------------------- Iteration      1(   5)  ---------------------------------------


     EDDAV:  cpu time  108.8605: real time  109.4161
 BZINTS: Fermi energy:  0.016440;578.000000 electrons
         Band energy:***********;  BLOECHL correction: -0.129559
       DOS:  cpu time    0.1900: real time    0.1896
    --------------------------------------------
      LOOP:  cpu time  109.0504: real time  109.6056

 eigenvalue-minimisations  : 37743
 total energy-change (2. order) :-0.3122159E+00  (-0.3119565E+00)
 number of electron     578.0000083 magnetization     105.9540240
 augmentation part      578.0000083 magnetization     105.9540240

 DIPCOR: dipole corrections for dipol
 direction  3 min pos   238,
 dipolmoment           0.000000      0.000000     -0.021985 electrons x Angstroem
 Tr[quadrupol]     -9754.506370

 energy correction for charged system         0.000000 eV
 dipol+quadrupol energy correction           -0.000023 eV
 added-field ion interaction         -0.024970 eV  (added to PSCEN)


 Free energy of the ion-electron system (eV)
  ---------------------------------------------------
  alpha Z        PSCENC =      1342.40351117
  Ewald energy   TEWEN  =    187821.91326209
  -Hartree energ DENC   =   -240867.86373536
  -exchange      EXHF   =         0.00000000
  -V(xc)+E(xc)   XCENC  =      1147.00171724
  PAW double counting   =     58480.48464408   -61019.77399743
  entropy T*S    EENTRO =         0.00000000
  eigenvalues    EBANDS =     -1305.90242567
  atomic energy  EATOM  =     53986.83344209
  Solvation  Ediel_sol  =         0.00000000
  ---------------------------------------------------
  free energy    TOTEN  =      -414.90358179 eV

  energy without entropy =     -414.90358179  energy(sigma->0) =     -414.90358179


--------------------------------------------------------------------------------------------------------




--------------------------------------- Iteration      1(   6)  ---------------------------------------


    EDDIAG:  cpu time   14.6278: real time   14.6739
  RMM-DIIS:  cpu time   61.0807: real time   61.3177
    ORTHCH:  cpu time    2.5876: real time    2.5949
 BZINTS: Fermi energy:  0.016410;578.000000 electrons
         Band energy:***********;  BLOECHL correction: -0.129554
       DOS:  cpu time    0.1900: real time    0.1892
    --------------------------------------------
      LOOP:  cpu time   78.4861: real time   78.7757

 eigenvalue-minimisations  : 34199
 total energy-change (2. order) :-0.1102445E-01  (-0.1101993E-01)
 number of electron     578.0000083 magnetization     105.9540240
 augmentation part      578.0000083 magnetization     105.9540240

 DIPCOR: dipole corrections for dipol
 direction  3 min pos   238,
 dipolmoment           0.000000      0.000000     -0.021985 electrons x Angstroem
 Tr[quadrupol]     -9754.506370

 energy correction for charged system         0.000000 eV
 dipol+quadrupol energy correction           -0.000023 eV
 added-field ion interaction         -0.024970 eV  (added to PSCEN)


 Free energy of the ion-electron system (eV)
  ---------------------------------------------------
  alpha Z        PSCENC =      1342.40351117
  Ewald energy   TEWEN  =    187821.91326209
  -Hartree energ DENC   =   -240867.86373536
  -exchange      EXHF   =         0.00000000
  -V(xc)+E(xc)   XCENC  =      1147.00171724
  PAW double counting   =     58480.48464408   -61019.77399743
  entropy T*S    EENTRO =         0.00000000
  eigenvalues    EBANDS =     -1305.91345011
  atomic energy  EATOM  =     53986.83344209
  Solvation  Ediel_sol  =         0.00000000
  ---------------------------------------------------
  free energy    TOTEN  =      -414.91460623 eV

  energy without entropy =     -414.91460623  energy(sigma->0) =     -414.91460623


--------------------------------------------------------------------------------------------------------




--------------------------------------- Iteration      1(   7)  ---------------------------------------


    EDDIAG:  cpu time   14.5668: real time   14.6102
  RMM-DIIS:  cpu time   88.2466: real time   88.6140
    ORTHCH:  cpu time    2.6156: real time    2.6235
 BZINTS: Fermi energy:  0.016402;578.000000 electrons
         Band energy:***********;  BLOECHL correction: -0.129552
       DOS:  cpu time    0.1790: real time    0.1783
    --------------------------------------------
      LOOP:  cpu time  105.6079: real time  106.0261

 eigenvalue-minimisations  : 50133
 total energy-change (2. order) :-0.3372149E-02  (-0.3363170E-02)
 number of electron     578.0000083 magnetization     105.9540240
 augmentation part      578.0000083 magnetization     105.9540240

 DIPCOR: dipole corrections for dipol
 direction  3 min pos   238,
 dipolmoment           0.000000      0.000000     -0.021985 electrons x Angstroem
 Tr[quadrupol]     -9754.506370

 energy correction for charged system         0.000000 eV
 dipol+quadrupol energy correction           -0.000023 eV
 added-field ion interaction         -0.024970 eV  (added to PSCEN)


 Free energy of the ion-electron system (eV)
  ---------------------------------------------------
  alpha Z        PSCENC =      1342.40351117
  Ewald energy   TEWEN  =    187821.91326209
  -Hartree energ DENC   =   -240867.86373536
  -exchange      EXHF   =         0.00000000
  -V(xc)+E(xc)   XCENC  =      1147.00171724
  PAW double counting   =     58480.48464408   -61019.77399743
  entropy T*S    EENTRO =         0.00000000
  eigenvalues    EBANDS =     -1305.91682226
  atomic energy  EATOM  =     53986.83344209
  Solvation  Ediel_sol  =         0.00000000
  ---------------------------------------------------
  free energy    TOTEN  =      -414.91797838 eV

  energy without entropy =     -414.91797838  energy(sigma->0) =     -414.91797838


--------------------------------------------------------------------------------------------------------




--------------------------------------- Iteration      1(   8)  ---------------------------------------


    EDDIAG:  cpu time   14.5578: real time   14.6007
  RMM-DIIS:  cpu time   83.6423: real time   84.0311
    ORTHCH:  cpu time    3.0635: real time    3.0717
 BZINTS: Fermi energy:  0.016402;578.000000 electrons
         Band energy:***********;  BLOECHL correction: -0.129552
       DOS:  cpu time    0.1730: real time    0.1723
    --------------------------------------------
      LOOP:  cpu time  101.4366: real time  101.8759

 eigenvalue-minimisations  : 46970
 total energy-change (2. order) :-0.6462177E-04  (-0.6891110E-04)
 number of electron     578.0000083 magnetization     105.9540240
 augmentation part      578.0000083 magnetization     105.9540240

 DIPCOR: dipole corrections for dipol
 direction  3 min pos   238,
 dipolmoment           0.000000      0.000000     -0.021985 electrons x Angstroem
 Tr[quadrupol]     -9754.506370

 energy correction for charged system         0.000000 eV
 dipol+quadrupol energy correction           -0.000023 eV
 added-field ion interaction         -0.024970 eV  (added to PSCEN)


 Free energy of the ion-electron system (eV)
  ---------------------------------------------------
  alpha Z        PSCENC =      1342.40351117
  Ewald energy   TEWEN  =    187821.91326209
  -Hartree energ DENC   =   -240867.86373536
  -exchange      EXHF   =         0.00000000
  -V(xc)+E(xc)   XCENC  =      1147.00171724
  PAW double counting   =     58480.48464408   -61019.77399743
  entropy T*S    EENTRO =         0.00000000
  eigenvalues    EBANDS =     -1305.91688688
  atomic energy  EATOM  =     53986.83344209
  Solvation  Ediel_sol  =         0.00000000
  ---------------------------------------------------
  free energy    TOTEN  =      -414.91804300 eV

  energy without entropy =     -414.91804300  energy(sigma->0) =     -414.91804300


--------------------------------------------------------------------------------------------------------




--------------------------------------- Iteration      1(   9)  ---------------------------------------


    EDDIAG:  cpu time   14.7758: real time   14.8233
  RMM-DIIS:  cpu time   61.4357: real time   61.6863
    ORTHCH:  cpu time    2.6006: real time    2.6086
 BZINTS: Fermi energy:  0.016402;578.000000 electrons
         Band energy:***********;  BLOECHL correction: -0.129552
       DOS:  cpu time    0.1810: real time    0.1811
    --------------------------------------------
      LOOP:  cpu time   78.9930: real time   79.2994

 eigenvalue-minimisations  : 34223
 total energy-change (2. order) :-0.2611373E-04  (-0.2587173E-04)
 number of electron     578.0000083 magnetization     105.9540240
 augmentation part      578.0000083 magnetization     105.9540240

 DIPCOR: dipole corrections for dipol
 direction  3 min pos   238,
 dipolmoment           0.000000      0.000000     -0.021985 electrons x Angstroem
 Tr[quadrupol]     -9754.506370

 energy correction for charged system         0.000000 eV
 dipol+quadrupol energy correction           -0.000023 eV
 added-field ion interaction         -0.024970 eV  (added to PSCEN)


 Free energy of the ion-electron system (eV)
  ---------------------------------------------------
  alpha Z        PSCENC =      1342.40351117
  Ewald energy   TEWEN  =    187821.91326209
  -Hartree energ DENC   =   -240867.86373536
  -exchange      EXHF   =         0.00000000
  -V(xc)+E(xc)   XCENC  =      1147.00171724
  PAW double counting   =     58480.48464408   -61019.77399743
  entropy T*S    EENTRO =         0.00000000
  eigenvalues    EBANDS =     -1305.91691300
  atomic energy  EATOM  =     53986.83344209
  Solvation  Ediel_sol  =         0.00000000
  ---------------------------------------------------
  free energy    TOTEN  =      -414.91806912 eV

  energy without entropy =     -414.91806912  energy(sigma->0) =     -414.91806912


--------------------------------------------------------------------------------------------------------




--------------------------------------- Iteration      1(  10)  ---------------------------------------


    EDDIAG:  cpu time   14.6218: real time   14.6600
  RMM-DIIS:  cpu time   42.6425: real time   42.8033
    ORTHCH:  cpu time    2.5826: real time    2.5897
 BZINTS: Fermi energy:  0.016402;578.000000 electrons
         Band energy:***********;  BLOECHL correction: -0.129552
       DOS:  cpu time    0.1640: real time    0.1642
    --------------------------------------------
      LOOP:  cpu time   60.0109: real time   60.2171

 eigenvalue-minimisations  : 22709
 total energy-change (2. order) :-0.2267858E-05  (-0.1646358E-05)
 number of electron     578.0000083 magnetization     105.9540240
 augmentation part      578.0000083 magnetization     105.9540240

 DIPCOR: dipole corrections for dipol
 direction  3 min pos   238,
 dipolmoment           0.000000      0.000000     -0.021985 electrons x Angstroem
 Tr[quadrupol]     -9754.506370

 energy correction for charged system         0.000000 eV
 dipol+quadrupol energy correction           -0.000023 eV
 added-field ion interaction         -0.024970 eV  (added to PSCEN)


 Free energy of the ion-electron system (eV)
  ---------------------------------------------------
  alpha Z        PSCENC =      1342.40351117
  Ewald energy   TEWEN  =    187821.91326209
  -Hartree energ DENC   =   -240867.86373536
  -exchange      EXHF   =         0.00000000
  -V(xc)+E(xc)   XCENC  =      1147.00171724
  PAW double counting   =     58480.48464408   -61019.77399743
  entropy T*S    EENTRO =         0.00000000
  eigenvalues    EBANDS =     -1305.91691526
  atomic energy  EATOM  =     53986.83344209
  Solvation  Ediel_sol  =         0.00000000
  ---------------------------------------------------
  free energy    TOTEN  =      -414.91807139 eV

  energy without entropy =     -414.91807139  energy(sigma->0) =     -414.91807139


--------------------------------------------------------------------------------------------------------




--------------------------------------- Iteration      1(  11)  ---------------------------------------


    EDDIAG:  cpu time   14.6598: real time   14.7337
  RMM-DIIS:  cpu time   40.4219: real time   40.5715
    ORTHCH:  cpu time    2.6486: real time    2.6553
 BZINTS: Fermi energy:  0.016402;578.000000 electrons
         Band energy:***********;  BLOECHL correction: -0.129552
       DOS:  cpu time    0.1800: real time    0.1819
    --------------------------------------------
      LOOP:  cpu time   57.9102: real time   58.1424

 eigenvalue-minimisations  : 21286
 total energy-change (2. order) :-0.8254428E-06  (-0.7918435E-06)
 number of electron     578.0000083 magnetization     105.9540240
 augmentation part      578.0000083 magnetization     105.9540240

 DIPCOR: dipole corrections for dipol
 direction  3 min pos   238,
 dipolmoment           0.000000      0.000000     -0.021985 electrons x Angstroem
 Tr[quadrupol]     -9754.506370

 energy correction for charged system         0.000000 eV
 dipol+quadrupol energy correction           -0.000023 eV
 added-field ion interaction         -0.024970 eV  (added to PSCEN)


 Free energy of the ion-electron system (eV)
  ---------------------------------------------------
  alpha Z        PSCENC =      1342.40351117
  Ewald energy   TEWEN  =    187821.91326209
  -Hartree energ DENC   =   -240867.86373536
  -exchange      EXHF   =         0.00000000
  -V(xc)+E(xc)   XCENC  =      1147.00171724
  PAW double counting   =     58480.48464408   -61019.77399743
  entropy T*S    EENTRO =         0.00000000
  eigenvalues    EBANDS =     -1305.91691609
  atomic energy  EATOM  =     53986.83344209
  Solvation  Ediel_sol  =         0.00000000
  ---------------------------------------------------
  free energy    TOTEN  =      -414.91807221 eV

  energy without entropy =     -414.91807221  energy(sigma->0) =     -414.91807221


--------------------------------------------------------------------------------------------------------




 average (electrostatic) potential at core
  the test charge radii are     0.9791  1.0103
  (the norm of the test charge is              1.0000)
       1 -91.3760       2 -91.3323       3 -91.3367       4 -91.4182       5 -91.3936
       6 -91.4757       7 -91.3281       8 -91.0829       9 -91.2134      10 -91.3745
      11 -91.1296      12 -91.1970      13 -91.3884      14 -91.4028      15 -91.4463
      16 -91.1637      17 -91.1873      18 -91.3711      19 -91.0945      20 -91.1671
      21 -91.3634      22 -91.4103      23 -91.3987      24 -91.2080      25 -91.1754
      26 -91.0827      27 -91.1558      28 -91.0701      29 -91.1683      30 -91.1086
      31 -91.1886      32 -91.1756      33 -91.1598      34 -49.3827      35 -49.3219
      36 -49.5320      37 -49.5808      38 -49.4220      39 -49.4761      40 -49.4623
      41 -49.3492      42 -49.2953      43 -49.3710      44 -49.3304      45 -49.3226
      46 -49.4064      47 -49.3399      48 -49.6021      49 -49.5718      50 -49.4271
      51 -49.3308      52 -49.2498      53 -49.4588      54 -49.4517      55 -49.1700
      56 -49.4160      57 -49.4633      58 -49.4069      59 -49.4148      60 -49.3978
      61 -49.2579      62 -49.2805      63 -49.3981      64 -49.3319
 
 
 
 E-fermi :   0.0164     XC(G=0):  -5.9504     alpha+bet : -5.7068


 spin component 1

 k-point     1 :       0.0000    0.0000    0.0000
  band No.  band energies     occupation 
      1      -8.3382      1.00000
      2      -7.0795      1.00000
      3      -6.5398      1.00000
      4      -6.5004      1.00000
      5      -6.4664      1.00000
      6      -6.4150      1.00000
      7      -6.3724      1.00000
      8      -6.3434      1.00000
      9      -5.5738      1.00000
     10      -5.5052      1.00000
     11      -5.4737      1.00000
     12      -5.4529      1.00000
     13      -5.4127      1.00000
     14      -5.3900      1.00000
     15      -5.3653      1.00000
     16      -5.0237      1.00000
     17      -4.8303      1.00000
     18      -4.8084      1.00000
     19      -4.7791      1.00000
     20      -4.7736      1.00000
     21      -4.7618      1.00000
     22      -4.7121      1.00000
     23      -4.4444      1.00000
     24      -4.4087      1.00000
     25      -4.3950      1.00000
     26      -4.3840      1.00000
     27      -4.3659      1.00000
     28      -4.3573      1.00000
     29      -4.3228      1.00000
     30      -4.3124      1.00000
     31      -4.2949      1.00000
     32      -4.2821      1.00000
     33      -4.2731      1.00000
     34      -4.2658      1.00000
     35      -4.2623      1.00000
     36      -4.2548      1.00000
     37      -4.2519      1.00000
     38      -4.2379      1.00000
     39      -4.2302      1.00000
     40      -4.2185      1.00000
     41      -4.2093      1.00000
     42      -4.2001      1.00000
     43      -4.1847      1.00000
     44      -4.1775      1.00000
     45      -4.1615      1.00000
     46      -4.1499      1.00000
     47      -4.1333      1.00000
     48      -4.1268      1.00000
     49      -4.0980      1.00000
     50      -4.0670      1.00000
     51      -4.0427      1.00000
     52      -4.0373      1.00000
     53      -4.0344      1.00000
     54      -4.0175      1.00000
     55      -4.0034      1.00000
     56      -3.9965      1.00000
     57      -3.9695      1.00000
     58      -3.9611      1.00000
     59      -3.9397      1.00000
     60      -3.9377      1.00000
     61      -3.8921      1.00000
     62      -3.8076      1.00000
     63      -3.7852      1.00000
     64      -3.7284      1.00000
     65      -3.7069      1.00000
     66      -3.6881      1.00000
     67      -3.6700      1.00000
     68      -3.6671      1.00000
     69      -3.6391      1.00000
     70      -3.6357      1.00000
     71      -3.6260      1.00000
     72      -3.6106      1.00000
     73      -3.5988      1.00000
     74      -3.5811      1.00000
     75      -3.5756      1.00000
     76      -3.5719      1.00000
     77      -3.5548      1.00000
     78      -3.5424      1.00000
     79      -3.5405      1.00000
     80      -3.5196      1.00000
     81      -3.5178      1.00000
     82      -3.4864      1.00000
     83      -3.3907      1.00000
     84      -3.3764      1.00000
     85      -3.3633      1.00000
     86      -3.3409      1.00000
     87      -3.3271      1.00000
     88      -3.2996      1.00000
     89      -3.2856      1.00000
     90      -3.2779      1.00000
     91      -3.2692      1.00000
     92      -3.2567      1.00000
     93      -3.2482      1.00000
     94      -3.2260      1.00000
     95      -3.2159      1.00000
     96      -3.2094      1.00000
     97      -3.2019      1.00000
     98      -3.1849      1.00000
     99      -3.1725      1.00000
    100      -3.1607      1.00000
    101      -3.1444      1.00000
    102      -3.1226      1.00000
    103      -3.1018      1.00000
    104      -3.0917      1.00000
    105      -3.0774      1.00000
    106      -3.0676      1.00000
    107      -3.0504      1.00000
    108      -3.0370      1.00000
    109      -3.0155      1.00000
    110      -3.0135      1.00000
    111      -2.9656      1.00000
    112      -2.9525      1.00000
    113      -2.9281      1.00000
    114      -2.9179      1.00000
    115      -2.8939      1.00000
    116      -2.8594      1.00000
    117      -2.8351      1.00000
    118      -2.8325      1.00000
    119      -2.8128      1.00000
    120      -2.8092      1.00000
    121      -2.8021      1.00000
    122      -2.7851      1.00000
    123      -2.7794      1.00000
    124      -2.7726      1.00000
    125      -2.7556      1.00000
    126      -2.7446      1.00000
    127      -2.7400      1.00000
    128      -2.7320      1.00000
    129      -2.7154      1.00000
    130      -2.7018      1.00000
    131      -2.6804      1.00000
    132      -2.6420      1.00000
    133      -2.6393      1.00000
    134      -2.6331      1.00000
    135      -2.6170      1.00000
    136      -2.6026      1.00000
    137      -2.5994      1.00000
    138      -2.5902      1.00000
    139      -2.5744      1.00000
    140      -2.5638      1.00000
    141      -2.5594      1.00000
    142      -2.5531      1.00000
    143      -2.5446      1.00000
    144      -2.5417      1.00000
    145      -2.5228      1.00000
    146      -2.5128      1.00000
    147      -2.5080      1.00000
    148      -2.5050      1.00000
    149      -2.4931      1.00000
    150      -2.4862      1.00000
    151      -2.4733      1.00000
    152      -2.4655      1.00000
    153      -2.4627      1.00000
    154      -2.4595      1.00000
    155      -2.4480      1.00000
    156      -2.4368      1.00000
    157      -2.4324      1.00000
    158      -2.4236      1.00000
    159      -2.4122      1.00000
    160      -2.4113      1.00000
    161      -2.3973      1.00000
    162      -2.3957      1.00000
    163      -2.3777      1.00000
    164      -2.3724      1.00000
    165      -2.3587      1.00000
    166      -2.3480      1.00000
    167      -2.3386      1.00000
    168      -2.3370      1.00000
    169      -2.3145      1.00000
    170      -2.3107      1.00000
    171      -2.2929      1.00000
    172      -2.2819      1.00000
    173      -2.2765      1.00000
    174      -2.2636      1.00000
    175      -2.2567      1.00000
    176      -2.2437      1.00000
    177      -2.2398      1.00000
    178      -2.2249      1.00000
    179      -2.2227      1.00000
    180      -2.2139      1.00000
    181      -2.2059      1.00000
    182      -2.2028      1.00000
    183      -2.1973      1.00000
    184      -2.1902      1.00000
    185      -2.1851      1.00000
    186      -2.1752      1.00000
    187      -2.1688      1.00000
    188      -2.1630      1.00000
    189      -2.1499      1.00000
    190      -2.1447      1.00000
    191      -2.1408      1.00000
    192      -2.1315      1.00000
    193      -2.1265      1.00000
    194      -2.1176      1.00000
    195      -2.1151      1.00000
    196      -2.1082      1.00000
    197      -2.0990      1.00000
    198      -2.0894      1.00000
    199      -2.0788      1.00000
    200      -2.0750      1.00000
    201      -2.0445      1.00000
    202      -1.9691      1.00000
    203      -1.9296      1.00000
    204      -1.9149      1.00000
    205      -1.9003      1.00000
    206      -1.8924      1.00000
    207      -1.8814      1.00000
    208      -1.8753      1.00000
    209      -1.8690      1.00000
    210      -1.8640      1.00000
    211      -1.8457      1.00000
    212      -1.8301      1.00000
    213      -1.8269      1.00000
    214      -1.8150      1.00000
    215      -1.8071      1.00000
    216      -1.7956      1.00000
    217      -1.7882      1.00000
    218      -1.7754      1.00000
    219      -1.7582      1.00000
    220      -1.7370      1.00000
    221      -1.7325      1.00000
    222      -1.7009      1.00000
    223      -1.6991      1.00000
    224      -1.6873      1.00000
    225      -1.6713      1.00000
    226      -1.6655      1.00000
    227      -1.6572      1.00000
    228      -1.6542      1.00000
    229      -1.6428      1.00000
    230      -1.6321      1.00000
    231      -1.6208      1.00000
    232      -1.5924      1.00000
    233      -1.5499      1.00000
    234      -1.5269      1.00000
    235      -1.5186      1.00000
    236      -1.5132      1.00000
    237      -1.5031      1.00000
    238      -1.4904      1.00000
    239      -1.4884      1.00000
    240      -1.4789      1.00000
    241      -1.4694      1.00000
    242      -1.4675      1.00000
    243      -1.4597      1.00000
    244      -1.4571      1.00000
    245      -1.4427      1.00000
    246      -1.4409      1.00000
    247      -1.4326      1.00000
    248      -1.4293      1.00000
    249      -1.4211      1.00000
    250      -1.4049      1.00000
    251      -1.3995      1.00000
    252      -1.3909      1.00000
    253      -1.3820      1.00000
    254      -1.3804      1.00000
    255      -1.3718      1.00000
    256      -1.3615      1.00000
    257      -1.3520      1.00000
    258      -1.3510      1.00000
    259      -1.3457      1.00000
    260      -1.3379      1.00000
    261      -1.3265      1.00000
    262      -1.3211      1.00000
    263      -1.3135      1.00000
    264      -1.3101      1.00000
    265      -1.2940      1.00000
    266      -1.2819      1.00000
    267      -1.2805      1.00000
    268      -1.2693      1.00000
    269      -1.2605      1.00000
    270      -1.2524      1.00000
    271      -1.2402      1.00000
    272      -1.2357      1.00000
    273      -1.2272      1.00000
    274      -1.2183      1.00000
    275      -1.2136      1.00000
    276      -1.2010      1.00000
    277      -1.1902      1.00000
    278      -1.1865      1.00000
    279      -1.1678      1.00000
    280      -1.1534      1.00000
    281      -1.1479      1.00000
    282      -1.1423      1.00000
    283      -1.0794      1.00000
    284      -1.0671      1.00000
    285      -1.0474      1.00000
    286      -1.0320      1.00000
    287      -1.0223      1.00000
    288      -1.0087      1.00000
    289      -1.0033      1.00000
    290      -0.9740      1.00000
    291      -0.9628      1.00000
    292      -0.9513      1.00000
    293      -0.9348      1.00000
    294      -0.9319      1.00000
    295      -0.8893      1.00000
    296      -0.8751      1.00000
    297      -0.8542      1.00000
    298      -0.8403      1.00000
    299      -0.8374      1.00000
    300      -0.8237      1.00000
    301      -0.7981      1.00000
    302      -0.7898      1.00000
    303      -0.7851      1.00000
    304      -0.7827      1.00000
    305      -0.7633      1.00000
    306      -0.7565      1.00000
    307      -0.7437      1.00000
    308      -0.7374      1.00000
    309      -0.7291      1.00000
    310      -0.7133      1.00000
    311      -0.7060      1.00000
    312      -0.6969      1.00000
    313      -0.6884      1.00000
    314      -0.6870      1.00000
    315      -0.6796      1.00000
    316      -0.6733      1.00000
    317      -0.6596      1.00000
    318      -0.6565      1.00000
    319      -0.6419      1.00000
    320      -0.6370      1.00000
    321      -0.6325      1.00000
    322      -0.5965      1.00000
    323      -0.5897      1.00000
    324      -0.5697      1.00000
    325      -0.5591      1.00000
    326      -0.5460      1.00000
    327      -0.5322      1.00000
    328      -0.5240      1.00000
    329      -0.5200      1.00000
    330      -0.5058      1.00000
    331      -0.5007      1.00000
    332      -0.4886      1.00000
    333      -0.4752      1.00000
    334      -0.4532      1.00000
    335      -0.4429      1.00000
    336      -0.4051      1.00000
    337      -0.2363      1.00000
    338      -0.2039      1.00000
    339      -0.2007      1.00000
    340      -0.1894      1.00000
    341      -0.1754      0.97661
    342      -0.1522      0.85254
    343       0.1314      0.00000
    344       0.5470      0.00000
    345       0.5599      0.00000
    346       0.5822      0.00000
    347       1.0864      0.00000
    348       1.0929      0.00000
    349       1.0976      0.00000
    350       1.1266      0.00000
    351       1.1419      0.00000
    352       1.1524      0.00000
    353       1.5877      0.00000
    354       1.6196      0.00000
    355       1.6336      0.00000
    356       1.6512      0.00000
    357       1.6552      0.00000
    358       1.6845      0.00000
    359       1.7109      0.00000
    360       1.7448      0.00000
    361       1.7540      0.00000
    362       1.7680      0.00000
    363       1.7953      0.00000
    364       1.8117      0.00000
    365       1.8312      0.00000
    366       1.8362      0.00000
    367       1.8705      0.00000
    368       2.4310      0.00000
    369       2.4791      0.00000
    370       2.5248      0.00000
    371       2.5379      0.00000
    372       2.5705      0.00000
    373       2.6001      0.00000
    374       3.0244      0.00000
    375       3.0511      0.00000
    376       3.0551      0.00000
    377       3.0663      0.00000
    378       3.0709      0.00000
    379       3.1039      0.00000
    380       3.5092      0.00000
    381       3.6008      0.00000
    382       3.6328      0.00000
    383       3.6483      0.00000
    384       3.6746      0.00000
    385       3.7190      0.00000
    386       4.6071      0.00000
    387       4.6913      0.00000
    388       5.1697      0.00000
    389       5.1949      0.00000
    390       5.2117      0.00000
    391       5.2219      0.00000
    392       5.2401      0.00000
    393       5.2730      0.00000
    394       6.0317      0.00000
    395       6.0440      0.00000
    396       6.0458      0.00000
    397       6.1064      0.00000
    398       6.3295      0.00000
    399       6.3539      0.00000
    400       6.3665      0.00000
[...]
   0.551E+02 -.253E+02 -.268E+04   -.551E+02 0.254E+02 0.268E+04   -.205E-01 -.952E-01 0.193E+00   0.421E-01 -.795E-02 -.604E+00
   0.561E+00 0.532E+01 -.968E+03   -.382E+00 -.551E+01 0.969E+03   -.836E-01 0.796E-01 0.326E+00   -.686E-01 0.101E+00 -.159E+01
   -.671E+02 0.129E+02 0.274E+04   0.679E+02 -.129E+02 -.274E+04   -.273E+00 0.246E-01 -.579E+00   -.390E+00 0.598E-01 0.674E+00
   -.898E+02 0.109E+02 -.273E+04   0.901E+02 -.108E+02 0.273E+04   -.344E+00 -.160E+00 0.264E+00   0.246E-01 0.107E+00 -.569E+00
   -.604E+00 -.240E+02 0.831E+03   0.711E+00 0.242E+02 -.831E+03   0.565E-01 0.116E+00 -.232E+00   -.941E-01 -.322E+00 0.546E+00
   -.998E+02 -.308E+02 -.927E+03   0.100E+03 0.311E+02 0.928E+03   -.257E+00 -.131E+00 0.252E+00   0.122E-01 -.201E+00 -.152E+01
   0.152E+03 -.127E+02 0.839E+03   -.152E+03 0.127E+02 -.840E+03   0.499E+00 0.153E+00 -.601E+00   0.623E-01 -.127E+00 0.562E+00
   0.114E+02 -.882E+01 0.262E+04   -.115E+02 0.851E+01 -.262E+04   0.116E-01 0.226E+00 -.125E+01   0.993E-01 0.152E+00 0.590E+00
   0.960E+01 -.278E+00 -.265E+04   -.959E+01 0.649E+00 0.265E+04   -.366E-01 0.415E-01 0.117E+01   0.268E-01 -.400E+00 -.668E+00
   0.319E+01 0.270E+02 0.275E+04   -.321E+01 -.269E+02 -.275E+04   0.163E+00 0.227E+00 -.804E+00   -.130E+00 -.270E+00 0.617E+00
   0.217E+02 -.606E+01 -.273E+04   -.219E+02 0.623E+01 0.273E+04   0.256E+00 0.266E-01 0.815E+00   -.615E-01 -.179E+00 -.615E+00
   -.378E+02 0.153E+02 0.273E+04   0.380E+02 -.154E+02 -.273E+04   -.170E+00 0.239E-01 -.124E+01   -.612E-01 -.123E+00 0.494E+00
   0.919E+01 -.184E+02 -.269E+04   -.917E+01 0.187E+02 0.268E+04   0.277E-01 -.222E+00 0.125E+01   -.451E-01 -.930E-01 -.612E+00
   -.572E+02 0.761E+02 0.264E+04   0.572E+02 -.764E+02 -.264E+04   0.168E-01 0.206E+00 -.143E+01   0.113E+00 0.149E+00 0.548E+00
   -.520E+02 0.546E+02 -.267E+04   0.520E+02 -.547E+02 0.267E+04   0.102E-01 0.224E+00 0.160E+01   -.536E-01 -.610E-01 -.615E+00
   0.958E+02 -.476E+02 0.274E+04   -.963E+02 0.480E+02 -.274E+04   0.347E+00 -.209E+00 -.528E+00   0.291E-01 -.150E+00 0.561E+00
   0.891E+02 -.642E+02 -.265E+04   -.895E+02 0.646E+02 0.265E+04   0.294E+00 -.230E+00 0.101E+01   0.857E-01 -.112E+00 -.609E+00
   -.839E+01 0.872E+02 0.671E+03   0.858E+01 -.878E+02 -.671E+03   0.705E-02 0.502E+00 -.262E+00   -.175E+00 0.231E-01 0.372E+00
   0.604E+01 -.115E+02 -.766E+03   -.603E+01 0.112E+02 0.767E+03   -.403E-02 0.982E-01 -.405E+00   0.113E-01 0.154E+00 -.995E+00
   0.105E+02 -.377E+02 0.717E+03   -.107E+02 0.378E+02 -.717E+03   -.871E-01 -.139E+00 -.296E+00   0.249E+00 0.115E+00 0.328E+00
   0.637E+02 -.474E+02 0.219E+04   -.641E+02 0.479E+02 -.219E+04   0.332E+00 -.395E+00 -.232E+01   0.601E-01 -.479E-01 0.415E+00
   0.839E+02 -.239E+02 -.214E+04   -.846E+02 0.241E+02 0.214E+04   0.571E+00 -.395E+00 0.237E+01   0.104E+00 0.223E+00 -.387E+00
   0.142E+02 0.572E+02 -.731E+03   -.142E+02 -.575E+02 0.732E+03   -.240E-01 0.141E+00 0.648E-01   0.200E-01 0.911E-01 -.119E+01
   -.175E+02 0.136E+02 0.219E+04   0.178E+02 -.134E+02 -.218E+04   -.159E+00 -.126E+00 -.282E+01   -.155E+00 -.300E-01 0.472E+00
   -.600E+02 0.259E+02 -.215E+04   0.605E+02 -.259E+02 0.214E+04   -.534E+00 -.178E+00 0.250E+01   0.377E-01 0.195E+00 -.396E+00
   -.598E+02 -.582E+02 0.643E+03   0.598E+02 0.585E+02 -.644E+03   0.116E+00 -.371E+00 -.508E+00   -.973E-01 0.867E-01 0.636E+00
   -.150E+03 -.160E+02 -.771E+03   0.151E+03 0.162E+02 0.772E+03   -.848E+00 -.252E+00 -.220E-01   -.226E-01 0.118E+00 -.107E+01
   0.769E+02 -.506E+02 0.691E+03   -.772E+02 0.507E+02 -.691E+03   0.985E-01 -.108E+00 -.548E+00   0.183E+00 0.730E-01 0.538E+00
   0.783E+02 -.618E+02 -.708E+03   -.789E+02 0.619E+02 0.708E+03   0.479E+00 -.239E+00 0.467E+00   0.507E-01 0.135E+00 -.884E+00
   0.199E+01 -.697E+01 0.216E+04   -.185E+01 0.674E+01 -.216E+04   -.212E-01 0.133E+00 -.278E+01   -.820E-01 -.345E-01 0.442E+00
   0.535E+01 0.182E+02 -.214E+04   -.557E+01 -.190E+02 0.214E+04   0.126E+00 0.573E+00 0.298E+01   0.916E-01 0.198E+00 -.434E+00
   0.435E+02 -.598E+01 0.218E+04   -.438E+02 0.591E+01 -.218E+04   0.119E+00 -.180E+00 -.259E+01   0.152E+00 0.226E-01 0.569E+00
   0.314E+02 -.589E+01 -.223E+04   -.313E+02 0.588E+01 0.222E+04   0.152E-01 -.682E-01 0.316E+01   -.132E+00 0.471E-01 -.409E+00
   -.121E+03 0.447E+02 0.648E+03   0.121E+03 -.450E+02 -.649E+03   -.357E+00 0.300E+00 -.361E+00   0.133E-01 -.678E-01 0.466E+00
   -.766E+01 0.385E+02 0.629E+03   0.773E+01 -.386E+02 -.629E+03   -.431E-01 -.640E-01 -.705E+00   0.863E-02 0.994E-01 0.507E+00
   -.590E+02 0.216E+02 -.717E+03   0.588E+02 -.215E+02 0.717E+03   0.157E+00 0.295E-01 0.734E+00   0.386E-01 -.149E+00 -.117E+01
   -.767E+02 0.205E+02 0.213E+04   0.773E+02 -.206E+02 -.212E+04   -.289E+00 0.197E+00 -.275E+01   -.226E+00 0.175E-01 0.516E+00
   -.619E+02 0.407E+02 -.218E+04   0.622E+02 -.406E+02 0.217E+04   -.339E+00 0.218E+00 0.340E+01   0.319E-01 -.238E+00 -.497E+00
   0.524E+02 -.356E+02 -.732E+03   -.524E+02 0.360E+02 0.733E+03   -.218E-01 -.295E+00 0.947E-01   0.217E-01 -.121E+00 -.115E+01
   0.957E+02 -.726E+02 -.757E+03   -.960E+02 0.731E+02 0.759E+03   0.377E+00 -.354E+00 0.688E-01   -.671E-01 -.160E+00 -.117E+01
   0.569E+02 -.395E+01 0.217E+04   -.574E+02 0.396E+01 -.217E+04   0.207E+00 0.908E-01 -.288E+01   0.238E+00 -.696E-01 0.524E+00
   0.314E+02 -.331E+02 -.218E+04   -.315E+02 0.336E+02 0.218E+04   0.723E-01 -.216E+00 0.311E+01   -.477E-02 -.203E+00 -.533E+00
   0.566E+02 -.401E+02 -.740E+03   -.570E+02 0.404E+02 0.741E+03   0.391E+00 -.190E+00 0.231E+00   -.472E-01 -.156E+00 -.112E+01
   -.536E+02 0.361E+02 -.720E+03   0.540E+02 -.362E+02 0.721E+03   -.468E+00 0.166E+00 0.256E+00   0.723E-01 -.433E-01 -.124E+01
   -.397E+02 0.883E+02 -.719E+03   0.400E+02 -.889E+02 0.720E+03   -.270E+00 0.532E+00 0.412E+00   0.161E-01 -.161E-01 -.135E+01
   0.373E+02 0.135E+02 -.767E+03   -.374E+02 -.133E+02 0.768E+03   0.220E+00 -.283E-01 -.310E-02   -.473E-01 -.187E+00 -.126E+01
   0.403E+01 0.573E+01 0.212E+04   -.392E+01 -.572E+01 -.212E+04   -.228E+00 0.147E-01 -.284E+01   -.611E-01 0.520E-01 0.502E+00
   -.399E+02 0.236E+01 -.215E+04   0.402E+02 -.225E+01 0.214E+04   -.256E+00 0.705E-01 0.353E+01   0.452E-02 -.171E+00 -.503E+00
 -----------------------------------------------------------------------------------------------
   0.369E+00 0.639E+00 0.129E+02   0.117E-11 0.241E-12 0.318E-11   -.309E+00 -.603E+00 -.849E+00   -.637E-01 -.380E-01 -.120E+02
 
 
 POSITION                                       TOTAL-FORCE (eV/Angst)
 -----------------------------------------------------------------------------------
     10.08740      0.00562      4.04934         0.006555      0.045869     -0.173785
     -2.53339      8.73512      4.08189        -0.019076      0.101659     -0.124681
      5.03058      0.01686      4.07660         0.020917     -0.030138     -0.108904
      8.81557      2.19268      4.07950         0.000894     -0.014635     -0.166429
      1.26036      2.17683      4.06343        -0.075880     -0.064837     -0.099866
      2.54706      1.44218      6.11960        -0.007883     -0.005423      0.000307
      6.28789      2.21111      4.10570         0.033242     -0.039390     -0.295195
      3.80181      0.73423      2.00036         0.106704      0.020299      0.366057
      3.79655      0.72873      8.13755        -0.007787      0.007369     -0.004397
      7.58008      1.45800      6.17103        -0.006848      0.000935      0.013008
      6.31884      0.74108      2.03385        -0.015681     -0.094894      0.409954
      6.31117      0.73873      8.17245        -0.011106      0.025520     -0.014485
      7.57051      4.36576      4.10283         0.005143      0.030211     -0.211594
      5.03817      4.36229      4.08170        -0.028560     -0.030690     -0.189976
      3.82160      3.62114      6.14095        -0.029307     -0.009091      0.000688
      2.55462      2.91604      2.00083         0.046677      0.104814      0.340991
      2.53933      2.90549      8.12252         0.021521      0.006258      0.018105
      6.29457      3.62032      6.16891         0.027311     -0.005251      0.009783
      7.58585      2.93043      2.03372         0.109671      0.025182      0.425630
      7.58514      2.93578      8.15380        -0.008807      0.006365     -0.003882
      6.29425      6.55133      4.09264         0.069222     -0.000369     -0.217315
     -2.53557      5.80714      6.14962         0.010969      0.009379      0.019468
      3.81389      6.57546      4.07284        -0.045483      0.066075     -0.124815
      1.26871      5.10416      2.04534        -0.055113      0.062286      0.191512
      1.25217      5.08490      8.20048        -0.001015      0.012108      0.003783
      6.29450      5.11374      2.02822         0.014536      0.115359      0.353514
      6.25940      5.11501      8.15324        -0.012790      0.010509     -0.010496
     -2.53139      7.30304      2.00990         0.015482     -0.144484      0.325010
     -2.56535      7.31674      8.14730         0.007924      0.006319     -0.005492
      0.00464      7.28975      2.05721         0.051476      0.066613      0.269799
     -0.03379      7.31022      8.20023        -0.003162      0.012037      0.026793
      5.08583      7.28318      2.02758        -0.125136      0.067461      0.314459
      5.05076      7.28561      8.15439        -0.015494      0.001198      0.009975
      7.54405      0.03969      4.10439         0.029225     -0.086550     -0.304861
      0.00600      1.47599      6.07986         0.009758     -0.019252      0.053992
      3.74186      2.14689      4.07389        -0.026862      0.020843     -0.427814
      1.31001      0.72945      2.02674        -0.015816      0.004802      0.150632
      1.27684      0.74155      8.15238        -0.013706     -0.007306     -0.025876
      5.08065      1.48167      6.14572         0.002468     -0.017550      0.042035
      8.82791      0.75063      2.00000         0.027125     -0.039063      0.055045
      8.81862      0.75361      8.17381        -0.015379     -0.004079     -0.019371
     -0.02406      4.34464      4.11685        -0.030862     -0.006393     -0.301602
     -1.32758      3.64011      6.16739         0.002560     -0.002472      0.015704
      2.55702      4.37025      4.05870        -0.041529      0.018366     -0.200638
      1.33600      3.63395      6.14624        -0.018837      0.006796      0.024368
      0.02215      2.94990      2.02985         0.036888     -0.138671     -0.014442
      0.01525      2.92320      8.22238         0.000967      0.018911     -0.046489
      5.09719      2.93887      2.04044        -0.034542     -0.224748     -0.030033
      5.07366      2.93206      8.22966         0.002449     -0.031822     -0.041038
     -1.32764      6.58396      4.11126         0.004813     -0.056868     -0.283577
      1.24700      6.55932      4.09363         0.040587      0.007166     -0.199474
      0.01004      5.80202      6.21762        -0.005214     -0.003304      0.030677
     -1.29718      5.12819      2.06865         0.110068      0.077499      0.031632
     -1.31160      5.15211      8.23013         0.025334      0.004906     -0.016673
      2.56240      5.84334      6.17741        -0.002491      0.010006      0.050764
      5.06485      5.75637      6.13403        -0.003587      0.021383      0.035640
      3.79261      5.11061      2.02334         0.022032      0.025793     -0.090114
      3.75172      5.11535      8.24294        -0.004281      0.010605     -0.015793
     -3.78286      7.98916      6.09209        -0.008140      0.005722      0.029526
     -1.26199      8.00138      6.18123         0.001999     -0.003274      0.044533
      1.24553      8.03477      6.18742         0.013290     -0.032128      0.036731
      3.79785      8.00874      6.15175        -0.014999     -0.013178      0.051927
      2.54183      7.29082      2.05308        -0.179969      0.081687     -0.004828
      2.47444      7.27883      8.25009         0.007535      0.007554      0.021891
 -----------------------------------------------------------------------------------
    total drift:                               -0.003724     -0.002705      0.050895


--------------------------------------------------------------------------------------------------------



  FREE ENERGIE OF THE ION-ELECTRON SYSTEM (eV)
  ---------------------------------------------------
  free  energy   TOTEN  =      -414.91807221 eV

  energy  without entropy=     -414.91807221  energy(sigma->0) =     -414.91807221
 


--------------------------------------------------------------------------------------------------------


    POTLOK:  cpu time    0.2990: real time    0.2985


--------------------------------------------------------------------------------------------------------


     LOOP+:  cpu time 1091.5151: real time 1096.9994
    4ORBIT:  cpu time    0.0000: real time    0.0000
 


 total charge     
 
# of ion       s       p       d       tot
------------------------------------------
    1        0.500   0.501   8.308   9.309
    2        0.502   0.499   8.327   9.328
    3        0.500   0.497   8.314   9.311
    4        0.502   0.503   8.311   9.316
    5        0.508   0.511   8.319   9.338
    6        0.511   0.519   8.318   9.348
    7        0.495   0.489   8.314   9.298
    8        0.489   0.370   8.317   9.176
    9        0.501   0.399   8.317   9.216
   10        0.514   0.518   8.331   9.364
   11        0.493   0.377   8.313   9.184
   12        0.506   0.399   8.322   9.227
   13        0.495   0.492   8.303   9.290
   14        0.501   0.502   8.309   9.313
   15        0.515   0.528   8.315   9.357
   16        0.500   0.395   8.312   9.207
   17        0.507   0.409   8.320   9.236
   18        0.509   0.513   8.330   9.352
   19        0.493   0.382   8.319   9.194
   20        0.508   0.407   8.325   9.240
   21        0.494   0.488   8.311   9.293
   22        0.510   0.518   8.323   9.351
   23        0.505   0.509   8.307   9.321
   24        0.507   0.400   8.311   9.217
   25        0.511   0.403   8.324   9.238
   26        0.493   0.378   8.318   9.189
   27        0.503   0.397   8.331   9.231
   28        0.493   0.371   8.325   9.189
   29        0.505   0.393   8.332   9.231
   30        0.491   0.376   8.312   9.180
   31        0.504   0.397   8.329   9.230
   32        0.497   0.390   8.303   9.190
   33        0.505   0.401   8.321   9.227
   34        0.465   0.490   6.176   7.131
   35        0.470   0.503   6.198   7.170
   36        0.466   0.495   6.161   7.123
   37        0.466   0.388   6.116   6.970
   38        0.467   0.393   6.147   7.007
   39        0.475   0.509   6.182   7.166
   40        0.463   0.382   6.137   6.982
   41        0.467   0.395   6.164   7.026
   42        0.471   0.502   6.198   7.171
   43        0.475   0.507   6.189   7.172
   44        0.467   0.493   6.197   7.157
   45        0.473   0.500   6.199   7.171
   46        0.465   0.388   6.151   7.005
   47        0.467   0.388   6.155   7.010
   48        0.465   0.390   6.113   6.968
   49        0.462   0.382   6.126   6.970
   50        0.467   0.493   6.172   7.132
   51        0.466   0.491   6.183   7.140
   52        0.474   0.508   6.207   7.190
   53        0.466   0.388   6.140   6.994
   54        0.463   0.381   6.138   6.981
   55        0.476   0.506   6.225   7.207
   56        0.474   0.504   6.185   7.163
   57        0.469   0.390   6.149   7.007
   58        0.468   0.383   6.153   7.004
   59        0.472   0.500   6.189   7.162
   60        0.473   0.502   6.199   7.174
   61        0.477   0.509   6.211   7.197
   62        0.473   0.504   6.203   7.180
   63        0.468   0.387   6.153   7.008
   64        0.467   0.383   6.170   7.020
--------------------------------------------------
tot         31.105  28.567 465.777 525.448
 


 magnetization (x)
 
# of ion       s       p       d       tot
------------------------------------------
    1       -0.023  -0.050   0.729   0.656
    2       -0.021  -0.041   0.681   0.620
    3       -0.024  -0.046   0.703   0.633
    4       -0.022  -0.047   0.744   0.675
    5       -0.026  -0.054   0.725   0.645
    6       -0.025  -0.048   0.748   0.675
    7       -0.019  -0.039   0.698   0.640
    8       -0.020  -0.031   0.682   0.631
    9       -0.019  -0.037   0.731   0.675
   10       -0.027  -0.046   0.689   0.616
   11       -0.021  -0.031   0.700   0.648
   12       -0.024  -0.034   0.720   0.663
   13       -0.018  -0.040   0.735   0.677
   14       -0.022  -0.047   0.736   0.667
   15       -0.029  -0.060   0.743   0.654
   16       -0.029  -0.047   0.724   0.648
   17       -0.024  -0.041   0.704   0.639
   18       -0.019  -0.039   0.680   0.621
   19       -0.021  -0.034   0.670   0.615
   20       -0.026  -0.041   0.691   0.625
   21       -0.015  -0.034   0.715   0.666
   22       -0.024  -0.050   0.718   0.644
   23       -0.028  -0.058   0.745   0.660
   24       -0.029  -0.044   0.739   0.666
   25       -0.029  -0.039   0.710   0.642
   26       -0.019  -0.029   0.663   0.614
   27       -0.021  -0.032   0.680   0.628
   28       -0.020  -0.025   0.664   0.619
   29       -0.022  -0.028   0.695   0.646
   30       -0.020  -0.032   0.696   0.644
   31       -0.022  -0.035   0.716   0.659
   32       -0.023  -0.040   0.726   0.662
   33       -0.029  -0.044   0.707   0.634
   34       -0.003  -0.028   2.704   2.673
   35       -0.009  -0.039   2.657   2.609
   36        0.002  -0.018   2.767   2.751
   37        0.011  -0.009   2.888   2.890
   38        0.004  -0.018   2.823   2.809
   39       -0.002  -0.023   2.714   2.690
   40        0.005  -0.015   2.839   2.829
   41        0.002  -0.021   2.778   2.759
   42       -0.011  -0.041   2.648   2.597
   43       -0.007  -0.032   2.675   2.636
   44       -0.005  -0.027   2.658   2.626
   45       -0.006  -0.027   2.645   2.612
   46        0.006  -0.016   2.807   2.796
   47       -0.002  -0.023   2.797   2.772
   48        0.012  -0.009   2.896   2.899
   49        0.013  -0.006   2.888   2.894
   50       -0.002  -0.024   2.721   2.695
   51       -0.008  -0.032   2.684   2.643
   52       -0.013  -0.041   2.608   2.554
   53        0.008  -0.010   2.833   2.831
   54        0.009  -0.009   2.851   2.851
   55       -0.015  -0.042   2.551   2.495
   56       -0.001  -0.022   2.687   2.665
   57        0.008  -0.009   2.818   2.817
   58        0.004  -0.008   2.812   2.808
   59       -0.003  -0.021   2.688   2.664
   60       -0.002  -0.017   2.666   2.647
   61       -0.011  -0.036   2.600   2.554
   62       -0.010  -0.038   2.628   2.580
   63        0.004  -0.012   2.800   2.791
   64        0.003  -0.013   2.777   2.766
--------------------------------------------------
tot         -0.778  -2.026 108.315 105.511
 
 BZINTS: Fermi energy:  0.016402;578.000000 electrons
         Band energy:***********;  BLOECHL correction: -0.129552

 total amount of memory used by VASP MPI-rank0   256925. kBytes
=======================================================================

   base      :      30000. kBytes
   nonlr-proj:      13007. kBytes
   fftplans  :       6403. kBytes
   grid      :      16455. kBytes
   one-center:         93. kBytes
   wavefun   :     190967. kBytes
 
  
  
 General timing and accounting informations for this job:
 ========================================================
  
                  Total CPU time used (sec):     1203.782
                            User time (sec):     1187.752
                          System time (sec):       16.030
                         Elapsed time (sec):     1218.989
  
                   Maximum memory used (kb):      355344.
                   Average memory used (kb):           0.
  
                          Minor page faults:        28687
                          Major page faults:            0
                 Voluntary context switches:         8109
