       N       E                     dE             d eps       ncg     rms          rms(c)
DAV:   1     0.115680980927E+04    0.11568E+04   -0.56867E+04 50028   0.184E+03
DAV:   2     0.938155852039E+01   -0.11474E+04   -0.10799E+04 49776   0.379E+02
DAV:   3    -0.115143380024E+03   -0.12452E+03   -0.10087E+03 49827   0.160E+02
DAV:   4    -0.119541335861E+03   -0.43980E+01   -0.43326E+01 54222   0.365E+01
DAV:   5    -0.119589690768E+03   -0.48355E-01   -0.48334E-01 63327   0.327E+00
RMM:   6    -0.119590851446E+03   -0.11607E-02   -0.11607E-02 51868   0.474E-01
RMM:   7    -0.119591140604E+03   -0.28916E-03   -0.28801E-03 76208   0.140E-01
RMM:   8    -0.119591143548E+03   -0.29447E-05   -0.45873E-05 72876   0.194E-02
RMM:   9    -0.119591143674E+03   -0.12543E-06   -0.13879E-06 33058   0.536E-03
   1 F= -.11959114E+03 E0= -.11959114E+03  d E =0.000000E+00  mag=    32.5134
