 vasp.5.4.4.18Apr17-6-g9f103f2a35 (build Sep 06 2021 19:49:22) complex          
  
 executed on             LinuxIFC date 2021.12.29  15:45:29
 running on   24 total cores
 distrk:  each k-point on   24 cores,    1 groups
 distr:  one band on NCORES_PER_BAND=   8 cores,    3 groups


--------------------------------------------------------------------------------------------------------


 INCAR:
 POTCAR:    PAW_PBE Ni 02Aug2007                  
 POTCAR:    PAW_PBE Fe 06Sep2000                  
 POTCAR:    PAW_PBE Ni 02Aug2007                  
   VRHFIN =Ni:                                                                  
   LEXCH  = PE                                                                  
   EATOM  =  1077.6739 eV,   79.2068 Ry                                         
                                                                                
   TITEL  = PAW_PBE Ni 02Aug2007                                                
   LULTRA =        F    use ultrasoft PP ?                                      
   IUNSCR =        1    unscreen: 0-lin 1-nonlin 2-no                           
   RPACOR =    2.000    partial core radius                                     
   POMASS =   58.690; ZVAL   =   10.000    mass and valenz                      
   RCORE  =    2.300    outmost cutoff radius                                   
   RWIGS  =    2.430; RWIGS  =    1.286    wigner-seitz radius (au A)           
   ENMAX  =  269.532; ENMIN  =  202.149 eV                                      
   RCLOC  =    1.201    cutoff for local pot                                    
   LCOR   =        T    correct aug charges                                     
   LPAW   =        T    paw PP                                                  
   EAUG   =  544.565                                                            
   DEXC   =    0.000                                                            
   RMAX   =    2.357    core radius for proj-oper                               
   RAUG   =    1.300    factor for augmentation sphere                          
   RDEP   =    2.390    radius for radial grids                                 
   RDEPT  =    1.838    core radius for aug-charge                              
                                                                                
   Atomic configuration                                                         
    9 entries                                                                   
     n  l   j            E        occ.                                          
     1  0  0.50     -8206.4253   2.0000                                         
     2  0  0.50      -976.1748   2.0000                                         
     2  1  1.50      -839.0571   6.0000                                         
     3  0  0.50      -105.9991   2.0000                                         
     3  1  1.50       -66.4603   6.0000                                         
     3  2  2.50        -4.6458   9.0000                                         
     4  0  0.50        -4.4926   1.0000                                         
     4  1  1.50        -4.0817   0.0000                                         
     4  3  2.50        -1.3606   0.0000                                         
   Description                                                                  
     l       E           TYP  RCUT    TYP  RCUT                                 
     2     -4.6457903     23  2.300                                             
     2     -6.0063729     23  2.300                                             
     0     -4.4925590     23  2.300                                             
     0      5.0102601     23  2.300                                             
     1     -2.7211652     23  2.300                                             
     1     16.5183231     23  2.300                                             
  local pseudopotential read in
  partial core-charges read in
  partial kinetic energy density read in
  atomic valenz-charges read in
  non local Contribution for L=           2  read in
    real space projection operators read in
  non local Contribution for L=           2  read in
    real space projection operators read in
  non local Contribution for L=           0  read in
    real space projection operators read in
  non local Contribution for L=           0  read in
    real space projection operators read in
  non local Contribution for L=           1  read in
    real space projection operators read in
  non local Contribution for L=           1  read in
    real space projection operators read in
    PAW grid and wavefunctions read in
 
   number of l-projection  operators is LMAX  =           6
   number of lm-projection operators is LMMAX =          18
 
 POTCAR:    PAW_PBE Fe 06Sep2000                  
   VRHFIN =Fe:  d7 s1                                                           
   LEXCH  = PE                                                                  
   EATOM  =   594.3153 eV,   43.6809 Ry                                         
                                                                                
   TITEL  = PAW_PBE Fe 06Sep2000                                                
   LULTRA =        F    use ultrasoft PP ?                                      
   IUNSCR =        1    unscreen: 0-lin 1-nonlin 2-no                           
   RPACOR =    2.000    partial core radius                                     
   POMASS =   55.847; ZVAL   =    8.000    mass and valenz                      
   RCORE  =    2.300    outmost cutoff radius                                   
   RWIGS  =    2.460; RWIGS  =    1.302    wigner-seitz radius (au A)           
   ENMAX  =  267.882; ENMIN  =  200.911 eV                                      
   RCLOC  =    1.701    cutoff for local pot                                    
   LCOR   =        T    correct aug charges                                     
   LPAW   =        T    paw PP                                                  
   EAUG   =  511.368                                                            
   DEXC   =    0.000                                                            
   RMAX   =    2.356    core radius for proj-oper                               
   RAUG   =    1.300    factor for augmentation sphere                          
   RDEP   =    2.442    radius for radial grids                                 
   RDEPT  =    1.890    core radius for aug-charge                              
                                                                                
   Atomic configuration                                                         
    9 entries                                                                   
     n  l   j            E        occ.                                          
     1  0  0.50     -6993.8440   2.0000                                         
     2  0  0.50      -814.6047   2.0000                                         
     2  1  1.50      -693.3689   6.0000                                         
     3  0  0.50       -89.4732   2.0000                                         
     3  1  1.50       -55.6373   6.0000                                         
     3  2  2.50        -3.8151   7.0000                                         
     4  0  0.50        -4.2551   1.0000                                         
     4  1  1.50        -3.4015   0.0000                                         
     4  3  2.50        -1.3606   0.0000                                         
   Description                                                                  
     l       E           TYP  RCUT    TYP  RCUT                                 
     2     -3.8151135     23  2.300                                             
     2     -5.1756961     23  2.300                                             
     0     -4.2550963     23  2.300                                             
     0      7.2035603     23  2.300                                             
     1     -2.7211652     23  2.300                                             
     1     18.4316424     23  2.300                                             
  local pseudopotential read in
  partial core-charges read in
  partial kinetic energy density read in
  atomic valenz-charges read in
  non local Contribution for L=           2  read in
    real space projection operators read in
  non local Contribution for L=           2  read in
    real space projection operators read in
  non local Contribution for L=           0  read in
    real space projection operators read in
  non local Contribution for L=           0  read in
    real space projection operators read in
  non local Contribution for L=           1  read in
    real space projection operators read in
  non local Contribution for L=           1  read in
    real space projection operators read in
    PAW grid and wavefunctions read in
 
   number of l-projection  operators is LMAX  =           6
   number of lm-projection operators is LMMAX =          18
 
 Optimization of the real space projectors (new method)

 maximal supplied QI-value         = 16.25
 optimisation between [QCUT,QGAM] = [ 11.54, 23.24] = [ 37.28,151.24] Ry 
 Optimized for a Real-space Cutoff    1.45 Angstroem

   l    n(q)    QCUT    max X(q) W(low)/X(q) W(high)/X(q)  e(spline) 
   2      9    11.539    60.317    0.19E-03    0.47E-04    0.16E-06
   2      9    11.539    55.921    0.19E-03    0.48E-04    0.16E-06
   0     10    11.539    51.690    0.80E-04    0.50E-04    0.24E-06
   0     10    11.539    30.015    0.73E-04    0.45E-04    0.22E-06
   1     10    11.539    18.849    0.87E-04    0.16E-03    0.71E-07
   1     10    11.539    14.624    0.73E-04    0.13E-03    0.64E-07
 Optimization of the real space projectors (new method)

 maximal supplied QI-value         = 16.25
 optimisation between [QCUT,QGAM] = [ 11.54, 23.24] = [ 37.28,151.24] Ry 
 Optimized for a Real-space Cutoff    1.53 Angstroem

   l    n(q)    QCUT    max X(q) W(low)/X(q) W(high)/X(q)  e(spline) 
   2     10    11.539    80.901    0.11E-03    0.14E-03    0.21E-06
   2     10    11.539    75.754    0.11E-03    0.14E-03    0.22E-06
   0     11    11.539    58.752    0.52E-04    0.18E-04    0.33E-06
   0     11    11.539    30.679    0.44E-04    0.16E-04    0.30E-06
   1     10    11.539    17.977    0.53E-04    0.29E-04    0.13E-06
   1     10    11.539    13.559    0.44E-04    0.25E-04    0.11E-06
  PAW_PBE Ni 02Aug2007                  :
 energy of atom  1       EATOM=-1077.6739
 kinetic energy error for atom=    0.0030 (will be added to EATOM!!)
  PAW_PBE Fe 06Sep2000                  :
 energy of atom  2       EATOM= -594.3153
 kinetic energy error for atom=    0.0026 (will be added to EATOM!!)
 
 
 POSCAR: POSCAR                                  
  positions in direct lattice
  velocities in cartesian coordinates
 exchange correlation table for  LEXCH =        8
   RHO(1)=    0.500       N(1)  =     2000
   RHO(2)=  100.500       N(2)  =     4000
 


--------------------------------------------------------------------------------------------------------


 ion  position               nearest neighbor table
   1  0.249  0.690  0.814-   6 2.51   8 2.51  12 2.52  14 2.52  13 2.53   8 2.53   3 2.54   6 2.54
                             7 2.54   2 2.54   9 2.54   4 2.54
   2  0.002  0.250  0.750-   7 2.51   4 2.52   3 2.52  13 2.52   9 2.53   7 2.53  15 2.54   1 2.54
                            14 2.54   9 2.55   6 2.56   8 2.57
   3  0.250  0.938  0.561-  15 2.50   5 2.52   2 2.52  11 2.53   8 2.53   1 2.54   7 2.55  15 2.55
                             9 2.55   4 2.55   8 2.56  10 2.56
   4  0.001  0.496  0.499-  11 2.50   9 2.50  15 2.51   2 2.52  10 2.52  16 2.52   9 2.52   5 2.53
                             8 2.53  10 2.54   1 2.54   3 2.55
   5  0.003  0.748  0.250-  13 2.50   3 2.52  14 2.52  10 2.53   4 2.53   6 2.53  10 2.53  12 2.53
                            11 2.56  15 2.56  16 2.57  12 2.57
   6  0.745  0.566  0.937-   8 2.50   1 2.51  14 2.51   9 2.52   7 2.52  12 2.53  13 2.53   5 2.53
                             1 2.54  13 2.54   2 2.56  16 2.59
   7  0.505  0.127  0.875-  12 2.49   2 2.51  16 2.52  14 2.52   6 2.52   2 2.53   1 2.54   8 2.54
                             9 2.54   3 2.55  13 2.55  14 2.56
   8  0.745  0.806  0.686-   9 2.46   6 2.50   1 2.51  10 2.51   3 2.53   1 2.53   4 2.53   7 2.54
                            15 2.55   3 2.56  14 2.57   2 2.57
   9  0.505  0.379  0.624-   8 2.46  10 2.49   4 2.50  15 2.51  11 2.52   4 2.52   6 2.52   2 2.53
                             7 2.54   1 2.54   2 2.55   3 2.55
  10  0.503  0.620  0.374-  11 2.48   9 2.49   8 2.51   4 2.52  16 2.52  13 2.52   5 2.53   5 2.53
                             4 2.54  15 2.55   3 2.56  12 2.59
  11  0.253  0.192  0.314-  10 2.48   4 2.50  15 2.50  16 2.50  16 2.50  12 2.51   9 2.52  13 2.52
                             3 2.53  14 2.53   5 2.56  15 2.56
  12  0.499  0.883  0.123-  16 2.44  14 2.49   7 2.49  14 2.51  11 2.51   1 2.52  15 2.52   6 2.53
                             5 2.53  13 2.57   5 2.57  10 2.59
  13  0.246  0.439  0.063-   5 2.50  11 2.52   2 2.52  10 2.52   1 2.53  16 2.53  14 2.53   6 2.53
                             6 2.54   7 2.55  12 2.57  16 2.58
  14  0.000  0.999  0.002-  12 2.49  16 2.49  12 2.51   6 2.51   1 2.52   5 2.52   7 2.52  11 2.53
                            13 2.53   2 2.54   7 2.56   8 2.57
  15  0.743  0.064  0.437-  16 2.48  11 2.50   3 2.50   9 2.51   4 2.51  12 2.52   2 2.54  10 2.55
                             3 2.55   8 2.55   5 2.56  11 2.56
  16  0.750  0.304  0.189-  12 2.44  15 2.48  14 2.49  11 2.50  11 2.50   4 2.52   7 2.52  10 2.52
                            13 2.53   5 2.57  13 2.58   6 2.59
 

IMPORTANT INFORMATION: All symmetrisations will be switched off!
NOSYMM: (Re-)initialisation of all symmetry stuff for point group C_1.

 
 

Automatic generation of k-mesh.
 generate k-points for:    8    6    5
Space group operators:
 irot       det(A)        alpha          n_x          n_y          n_z        tau_x        tau_y        tau_z
    1     1.000000     0.000000     1.000000     0.000000     0.000000     0.000000     0.000000     0.000000
 
 Subroutine IBZKPT returns following result:
 ===========================================
 
 Found    122 irreducible k-points:
 
 Following reciprocal coordinates:
            Coordinates               Weight
  0.000000  0.000000  0.000000      1.000000
  0.125000  0.000000  0.000000      2.000000
  0.250000  0.000000  0.000000      2.000000
  0.375000  0.000000  0.000000      2.000000
  0.500000  0.000000  0.000000      1.000000
  0.000000  0.166667  0.000000      2.000000
  0.125000  0.166667  0.000000      2.000000
  0.250000  0.166667  0.000000      2.000000
  0.375000  0.166667  0.000000      2.000000
  0.500000  0.166667  0.000000      2.000000
 -0.375000  0.166667  0.000000      2.000000
 -0.250000  0.166667  0.000000      2.000000
 -0.125000  0.166667  0.000000      2.000000
  0.000000  0.333333  0.000000      2.000000
  0.125000  0.333333  0.000000      2.000000
  0.250000  0.333333  0.000000      2.000000
  0.375000  0.333333  0.000000      2.000000
  0.500000  0.333333  0.000000      2.000000
 -0.375000  0.333333  0.000000      2.000000
 -0.250000  0.333333  0.000000      2.000000
 -0.125000  0.333333  0.000000      2.000000
  0.000000  0.500000  0.000000      1.000000
  0.125000  0.500000  0.000000      2.000000
  0.250000  0.500000  0.000000      2.000000
  0.375000  0.500000  0.000000      2.000000
  0.500000  0.500000  0.000000      1.000000
  0.000000  0.000000  0.200000      2.000000
  0.125000  0.000000  0.200000      2.000000
  0.250000  0.000000  0.200000      2.000000
  0.375000  0.000000  0.200000      2.000000
  0.500000  0.000000  0.200000      2.000000
 -0.375000  0.000000  0.200000      2.000000
 -0.250000  0.000000  0.200000      2.000000
 -0.125000  0.000000  0.200000      2.000000
  0.000000  0.166667  0.200000      2.000000
  0.125000  0.166667  0.200000      2.000000
  0.250000  0.166667  0.200000      2.000000
  0.375000  0.166667  0.200000      2.000000
  0.500000  0.166667  0.200000      2.000000
 -0.375000  0.166667  0.200000      2.000000
 -0.250000  0.166667  0.200000      2.000000
 -0.125000  0.166667  0.200000      2.000000
  0.000000  0.333333  0.200000      2.000000
  0.125000  0.333333  0.200000      2.000000
  0.250000  0.333333  0.200000      2.000000
  0.375000  0.333333  0.200000      2.000000
  0.500000  0.333333  0.200000      2.000000
 -0.375000  0.333333  0.200000      2.000000
 -0.250000  0.333333  0.200000      2.000000
 -0.125000  0.333333  0.200000      2.000000
  0.000000  0.500000  0.200000      2.000000
  0.125000  0.500000  0.200000      2.000000
  0.250000  0.500000  0.200000      2.000000
  0.375000  0.500000  0.200000      2.000000
  0.500000  0.500000  0.200000      2.000000
 -0.375000  0.500000  0.200000      2.000000
 -0.250000  0.500000  0.200000      2.000000
 -0.125000  0.500000  0.200000      2.000000
  0.000000 -0.333333  0.200000      2.000000
  0.125000 -0.333333  0.200000      2.000000
  0.250000 -0.333333  0.200000      2.000000
  0.375000 -0.333333  0.200000      2.000000
  0.500000 -0.333333  0.200000      2.000000
 -0.375000 -0.333333  0.200000      2.000000
 -0.250000 -0.333333  0.200000      2.000000
 -0.125000 -0.333333  0.200000      2.000000
  0.000000 -0.166667  0.200000      2.000000
  0.125000 -0.166667  0.200000      2.000000
  0.250000 -0.166667  0.200000      2.000000
  0.375000 -0.166667  0.200000      2.000000
  0.500000 -0.166667  0.200000      2.000000
 -0.375000 -0.166667  0.200000      2.000000
 -0.250000 -0.166667  0.200000      2.000000
 -0.125000 -0.166667  0.200000      2.000000
  0.000000  0.000000  0.400000      2.000000
  0.125000  0.000000  0.400000      2.000000
  0.250000  0.000000  0.400000      2.000000
  0.375000  0.000000  0.400000      2.000000
  0.500000  0.000000  0.400000      2.000000
 -0.375000  0.000000  0.400000      2.000000
 -0.250000  0.000000  0.400000      2.000000
 -0.125000  0.000000  0.400000      2.000000
  0.000000  0.166667  0.400000      2.000000
  0.125000  0.166667  0.400000      2.000000
  0.250000  0.166667  0.400000      2.000000
  0.375000  0.166667  0.400000      2.000000
  0.500000  0.166667  0.400000      2.000000
 -0.375000  0.166667  0.400000      2.000000
 -0.250000  0.166667  0.400000      2.000000
 -0.125000  0.166667  0.400000      2.000000
  0.000000  0.333333  0.400000      2.000000
  0.125000  0.333333  0.400000      2.000000
  0.250000  0.333333  0.400000      2.000000
  0.375000  0.333333  0.400000      2.000000
  0.500000  0.333333  0.400000      2.000000
 -0.375000  0.333333  0.400000      2.000000
 -0.250000  0.333333  0.400000      2.000000
 -0.125000  0.333333  0.400000      2.000000
  0.000000  0.500000  0.400000      2.000000
  0.125000  0.500000  0.400000      2.000000
  0.250000  0.500000  0.400000      2.000000
  0.375000  0.500000  0.400000      2.000000
  0.500000  0.500000  0.400000      2.000000
 -0.375000  0.500000  0.400000      2.000000
 -0.250000  0.500000  0.400000      2.000000
 -0.125000  0.500000  0.400000      2.000000
  0.000000 -0.333333  0.400000      2.000000
  0.125000 -0.333333  0.400000      2.000000
  0.250000 -0.333333  0.400000      2.000000
  0.375000 -0.333333  0.400000      2.000000
  0.500000 -0.333333  0.400000      2.000000
 -0.375000 -0.333333  0.400000      2.000000
 -0.250000 -0.333333  0.400000      2.000000
 -0.125000 -0.333333  0.400000      2.000000
  0.000000 -0.166667  0.400000      2.000000
  0.125000 -0.166667  0.400000      2.000000
  0.250000 -0.166667  0.400000      2.000000
  0.375000 -0.166667  0.400000      2.000000
  0.500000 -0.166667  0.400000      2.000000
 -0.375000 -0.166667  0.400000      2.000000
 -0.250000 -0.166667  0.400000      2.000000
 -0.125000 -0.166667  0.400000      2.000000
 
 Following cartesian coordinates:
            Coordinates               Weight
 -0.000000 -0.000000 -0.000000      1.000000
  0.031250  0.031250 -0.093750      2.000000
  0.062500  0.062500 -0.187500      2.000000
  0.093750  0.093750 -0.281250      2.000000
  0.125000  0.125000 -0.375000      1.000000
 -0.010417 -0.093750 -0.052083      2.000000
  0.020833 -0.062500 -0.145833      2.000000
  0.052083 -0.031250 -0.239583      2.000000
  0.083333 -0.000000 -0.333333      2.000000
  0.114583  0.031250 -0.427083      2.000000
 -0.104167 -0.187500  0.229167      2.000000
 -0.072917 -0.156250  0.135417      2.000000
 -0.041667 -0.125000  0.041667      2.000000
 -0.020833 -0.187500 -0.104167      2.000000
  0.010417 -0.156250 -0.197917      2.000000
  0.041667 -0.125000 -0.291667      2.000000
  0.072917 -0.093750 -0.385417      2.000000
  0.104167 -0.062500 -0.479167      2.000000
 -0.114583 -0.281250  0.177083      2.000000
 -0.083333 -0.250000  0.083333      2.000000
 -0.052083 -0.218750 -0.010417      2.000000
 -0.031250 -0.281250 -0.156250      1.000000
 -0.000000 -0.250000 -0.250000      2.000000
  0.031250 -0.218750 -0.343750      2.000000
  0.062500 -0.187500 -0.437500      2.000000
  0.093750 -0.156250 -0.531250      1.000000
 -0.087500  0.012500 -0.037500      2.000000
 -0.056250  0.043750 -0.131250      2.000000
 -0.025000  0.075000 -0.225000      2.000000
  0.006250  0.106250 -0.318750      2.000000
  0.037500  0.137500 -0.412500      2.000000
 -0.181250 -0.081250  0.243750      2.000000
 -0.150000 -0.050000  0.150000      2.000000
 -0.118750 -0.018750  0.056250      2.000000
 -0.097917 -0.081250 -0.089583      2.000000
 -0.066667 -0.050000 -0.183333      2.000000
 -0.035417 -0.018750 -0.277083      2.000000
 -0.004167  0.012500 -0.370833      2.000000
  0.027083  0.043750 -0.464583      2.000000
 -0.191667 -0.175000  0.191667      2.000000
 -0.160417 -0.143750  0.097917      2.000000
 -0.129167 -0.112500  0.004167      2.000000
 -0.108333 -0.175000 -0.141667      2.000000
 -0.077083 -0.143750 -0.235417      2.000000
 -0.045833 -0.112500 -0.329167      2.000000
 -0.014583 -0.081250 -0.422917      2.000000
  0.016667 -0.050000 -0.516667      2.000000
 -0.202083 -0.268750  0.139583      2.000000
 -0.170833 -0.237500  0.045833      2.000000
 -0.139583 -0.206250 -0.047917      2.000000
 -0.118750 -0.268750 -0.193750      2.000000
 -0.087500 -0.237500 -0.287500      2.000000
 -0.056250 -0.206250 -0.381250      2.000000
 -0.025000 -0.175000 -0.475000      2.000000
  0.006250 -0.143750 -0.568750      2.000000
 -0.212500 -0.362500  0.087500      2.000000
 -0.181250 -0.331250 -0.006250      2.000000
 -0.150000 -0.300000 -0.100000      2.000000
 -0.066667  0.200000  0.066667      2.000000
 -0.035417  0.231250 -0.027083      2.000000
 -0.004167  0.262500 -0.120833      2.000000
  0.027083  0.293750 -0.214583      2.000000
  0.058333  0.325000 -0.308333      2.000000
 -0.160417  0.106250  0.347917      2.000000
 -0.129167  0.137500  0.254167      2.000000
 -0.097917  0.168750  0.160417      2.000000
 -0.077083  0.106250  0.014583      2.000000
 -0.045833  0.137500 -0.079167      2.000000
 -0.014583  0.168750 -0.172917      2.000000
  0.016667  0.200000 -0.266667      2.000000
  0.047917  0.231250 -0.360417      2.000000
 -0.170833  0.012500  0.295833      2.000000
 -0.139583  0.043750  0.202083      2.000000
 -0.108333  0.075000  0.108333      2.000000
 -0.175000  0.025000 -0.075000      2.000000
 -0.143750  0.056250 -0.168750      2.000000
 -0.112500  0.087500 -0.262500      2.000000
 -0.081250  0.118750 -0.356250      2.000000
 -0.050000  0.150000 -0.450000      2.000000
 -0.268750 -0.068750  0.206250      2.000000
 -0.237500 -0.037500  0.112500      2.000000
 -0.206250 -0.006250  0.018750      2.000000
 -0.185417 -0.068750 -0.127083      2.000000
 -0.154167 -0.037500 -0.220833      2.000000
 -0.122917 -0.006250 -0.314583      2.000000
 -0.091667  0.025000 -0.408333      2.000000
 -0.060417  0.056250 -0.502083      2.000000
 -0.279167 -0.162500  0.154167      2.000000
 -0.247917 -0.131250  0.060417      2.000000
 -0.216667 -0.100000 -0.033333      2.000000
 -0.195833 -0.162500 -0.179167      2.000000
 -0.164583 -0.131250 -0.272917      2.000000
 -0.133333 -0.100000 -0.366667      2.000000
 -0.102083 -0.068750 -0.460417      2.000000
 -0.070833 -0.037500 -0.554167      2.000000
 -0.289583 -0.256250  0.102083      2.000000
 -0.258333 -0.225000  0.008333      2.000000
 -0.227083 -0.193750 -0.085417      2.000000
 -0.206250 -0.256250 -0.231250      2.000000
 -0.175000 -0.225000 -0.325000      2.000000
 -0.143750 -0.193750 -0.418750      2.000000
 -0.112500 -0.162500 -0.512500      2.000000
 -0.081250 -0.131250 -0.606250      2.000000
 -0.300000 -0.350000  0.050000      2.000000
 -0.268750 -0.318750 -0.043750      2.000000
 -0.237500 -0.287500 -0.137500      2.000000
 -0.154167  0.212500  0.029167      2.000000
 -0.122917  0.243750 -0.064583      2.000000
 -0.091667  0.275000 -0.158333      2.000000
 -0.060417  0.306250 -0.252083      2.000000
 -0.029167  0.337500 -0.345833      2.000000
 -0.247917  0.118750  0.310417      2.000000
 -0.216667  0.150000  0.216667      2.000000
 -0.185417  0.181250  0.122917      2.000000
 -0.164583  0.118750 -0.022917      2.000000
 -0.133333  0.150000 -0.116667      2.000000
 -0.102083  0.181250 -0.210417      2.000000
 -0.070833  0.212500 -0.304167      2.000000
 -0.039583  0.243750 -0.397917      2.000000
 -0.258333  0.025000  0.258333      2.000000
 -0.227083  0.056250  0.164583      2.000000
 -0.195833  0.087500  0.070833      2.000000
 
 TETIRR: Found    720 inequivalent tetrahedra from     1440


--------------------------------------------------------------------------------------------------------




 Dimension of arrays:
   k-points           NKPTS =    122   k-points in BZ     NKDIM =    122   number of bands    NBANDS=    102
   number of dos      NEDOS =    301   number of ions     NIONS =     16
   non local maximal  LDIM  =      6   non local SUM 2l+1 LMDIM =     18
   total plane-waves  NPLWV =  84672
   max r-space proj   IRMAX =   7052   max aug-charges    IRDMAX=  16701
   dimension x,y,z NGX =    36 NGY =   42 NGZ =   56
   dimension x,y,z NGXF=    72 NGYF=   84 NGZF=  112
   support grid    NGXF=    72 NGYF=   84 NGZF=  112
   ions per type =               4  12
   NGX,Y,Z   is equivalent  to a cutoff of  13.67, 12.35, 12.28 a.u.
   NGXF,Y,Z  is equivalent  to a cutoff of  27.34, 24.70, 24.55 a.u.

 SYSTEM =  SQS-NiFe                                
 POSCAR =  POSCAR                                  

 Startparameter for this run:
   NWRITE =      2    write-flag & timer
   PREC   = accura    normal or accurate (medium, high low for compatibility)
   ISTART =      0    job   : 0-new  1-cont  2-samecut
   ICHARG =     11    charge: 1-file 2-atom 10-const
   ISPIN  =      2    spin polarized calculation?
   LNONCOLLINEAR =      F non collinear calculations
   LSORBIT =      F    spin-orbit coupling
   INIWAV =      1    electr: 0-lowe 1-rand  2-diag
   LASPH  =      F    aspherical Exc in radial PAW
   METAGGA=      F    non-selfconsistent MetaGGA calc.

 Electronic Relaxation 1
   ENCUT  =  520.0 eV  38.22 Ry    6.18 a.u.   8.14 10.51 14.10*2*pi/ulx,y,z
   ENINI  =  520.0     initial cutoff
   ENAUG  =  544.6 eV  augmentation charge cutoff
   NELM   =    200;   NELMIN=  2; NELMDL= -5     # of ELM steps 
   EDIFF  = 0.1E-05   stopping-criterion for ELM
   LREAL  =      T    real-space projection
   NLSPLINE    = F    spline interpolate recip. space projectors
   LCOMPAT=      F    compatible to vasp.4.4
   GGA_COMPAT  = T    GGA compatible to vasp.4.4-vasp.4.6
   LMAXPAW     = -100 max onsite density
   LMAXMIX     =    2 max onsite mixed and CHGCAR
   VOSKOWN=      0    Vosko Wilk Nusair interpolation
   ROPT   =   -0.00025  -0.00025
 Ionic relaxation
   EDIFFG = -.2E-01   stopping-criterion for IOM
   NSW    =      0    number of steps for IOM
   NBLOCK =      1;   KBLOCK =      1    inner block; outer block 
   IBRION =     -1    ionic relax: 0-MD 1-quasi-New 2-CG
   NFREE  =      0    steps in history (QN), initial steepest desc. (CG)
   ISIF   =      2    stress and relaxation
   IWAVPR =     10    prediction:  0-non 1-charg 2-wave 3-comb
   ISYM   =      0    0-nonsym 1-usesym 2-fastsym
   LCORR  =      T    Harris-Foulkes like correction to forces

   POTIM  = 0.5000    time-step for ionic-motion
   TEIN   =    0.0    initial temperature
   TEBEG  =    0.0;   TEEND  =   0.0 temperature during run
   SMASS  =  -3.00    Nose mass-parameter (am)
   estimated Nose-frequenzy (Omega)   =  0.10E-29 period in steps =****** mass=  -0.438E-27a.u.
   SCALEE = 1.0000    scale energy and forces
   NPACO  =    256;   APACO  = 16.0  distance and # of slots for P.C.
   PSTRESS=    0.0 pullay stress

  Mass of Ions in am
   POMASS =  58.69 55.85
  Ionic Valenz
   ZVAL   =  10.00  8.00
  Atomic Wigner-Seitz radii
   RWIGS  =  -1.00 -1.00
  virtual crystal weights 
   VCA    =   1.00  1.00
   NELECT =     136.0000    total number of electrons
   NUPDOWN=      -1.0000    fix difference up-down

 DOS related values:
   EMIN   =  10.00;   EMAX   =-10.00  energy-range for DOS
   EFERMI =   0.00
   ISMEAR =    -5;   SIGMA  =   0.20  broadening in eV -4-tet -1-fermi 0-gaus

 Electronic relaxation 2 (details)
   IALGO  =     68    algorithm
   LDIAG  =      T    sub-space diagonalisation (order eigenvalues)
   LSUBROT=      F    optimize rotation matrix (better conditioning)
   TURBO    =      0    0=normal 1=particle mesh
   IRESTART =      0    0=no restart 2=restart with 2 vectors
   NREBOOT  =      0    no. of reboots
   NMIN     =      0    reboot dimension
   EREF     =   0.00    reference energy to select bands
   IMIX   =      4    mixing-type and parameters
     AMIX     =   0.40;   BMIX     =  1.00
     AMIX_MAG =   1.60;   BMIX_MAG =  1.00
     AMIN     =   0.10
     WC   =   100.;   INIMIX=   1;  MIXPRE=   1;  MAXMIX= -45

 Intra band minimization:
   WEIMIN = 0.0000     energy-eigenvalue tresh-hold
   EBREAK =  0.25E-08  absolut break condition
   DEPER  =   0.30     relativ break condition  

   TIME   =   0.40     timestep for ELM

  volume/ion in A,a.u.               =      11.42        77.08
  Fermi-wavevector in a.u.,A,eV,Ry     =   1.483514  2.803436 29.943904  2.200815
  Thomas-Fermi vector in A             =   2.597166
 
 Write flags
   LWAVE        =      F    write WAVECAR
   LDOWNSAMPLE  =      F    k-point downsampling of WAVECAR
   LCHARG       =      F    write CHGCAR
   LVTOT        =      F    write LOCPOT, total local potential
   LVHAR        =      F    write LOCPOT, Hartree potential only
   LELF         =      F    write electronic localiz. function (ELF)
   LORBIT       =     11    0 simple, 1 ext, 2 COOP (PROOUT), +10 PAW based schemes


 Dipole corrections
   LMONO  =      F    monopole corrections only (constant potential shift)
   LDIPOL =      F    correct potential (dipole corrections)
   IDIPOL =      0    1-x, 2-y, 3-z, 4-all directions 
   EPSILON=  1.0000000 bulk dielectric constant

 Exchange correlation treatment:
   GGA     =    --    GGA type
   LEXCH   =     8    internal setting for exchange type
   VOSKOWN=      0    Vosko Wilk Nusair interpolation
   LHFCALC =     F    Hartree Fock is set to
   LHFONE  =     F    Hartree Fock one center treatment
   AEXX    =    0.0000 exact exchange contribution

 Linear response parameters
   LEPSILON=     F    determine dielectric tensor
   LRPA    =     F    only Hartree local field effects (RPA)
   LNABLA  =     F    use nabla operator in PAW spheres
   LVEL    =     F    velocity operator in full k-point grid
   LINTERFAST=   F  fast interpolation
   KINTER  =     0    interpolate to denser k-point grid
   CSHIFT  =0.1000    complex shift for real part using Kramers Kronig
   OMEGAMAX=  -1.0    maximum frequency
   DEG_THRESHOLD= 0.2000000E-02 threshold for treating states as degnerate
   RTIME   =   -0.100 relaxation time in fs
  (WPLASMAI=    0.000 imaginary part of plasma frequency in eV, 0.658/RTIME)
   DFIELD  = 0.0000000 0.0000000 0.0000000 field for delta impulse in time
 
 Orbital magnetization related:
   ORBITALMAG=     F  switch on orbital magnetization
   LCHIMAG   =     F  perturbation theory with respect to B field
   DQ        =  0.001000  dq finite difference perturbation B field
   LLRAUG    =     F  two centre corrections for induced B field



--------------------------------------------------------------------------------------------------------


 Static calculation
 charge density and potential remain constant during run
 spin polarized calculation
 RMM-DIIS sequential band-by-band and
  variant of blocked Davidson during initial phase
 perform sub-space diagonalisation
    before iterative eigenvector-optimisation
 no mixing
 using additional bands           34
 real space projection scheme for non local part
 use partial core corrections
 calculate Harris-corrections to forces 
   (improved forces if not selfconsistent)
 use gradient corrections 
 WARNING: stress and forces are not correct
  (second derivative of E(xc) not defined)
 use of overlap-Matrix (Vanderbilt PP)
 Fermi weights with tetrahedron method with Bloechl corrections


--------------------------------------------------------------------------------------------------------


  energy-cutoff  :      520.00
  volume of cell :      182.76
      direct lattice vectors                 reciprocal lattice vectors
     1.787500000  1.787500000 -3.575000000     0.069930070  0.069930070 -0.209790210
     0.000000000 -5.362500000 -1.787500000    -0.017482517 -0.157342657 -0.087412587
    -7.150000000  1.787500000 -1.787500000    -0.122377622  0.017482517 -0.052447552

  length of vectors
     4.378462915  5.652571318  7.583720228     0.231931804  0.180840567  0.134285765


 
 k-points in units of 2pi/SCALE and weight: read from INCAR                         
  -0.00000000 -0.00000000 -0.00000000       0.004
   0.03125000  0.03125000 -0.09375000       0.008
   0.06250000  0.06250000 -0.18750000       0.008
   0.09375000  0.09375000 -0.28125000       0.008
   0.12500000  0.12500000 -0.37500000       0.004
  -0.01041667 -0.09375000 -0.05208333       0.008
   0.02083333 -0.06250000 -0.14583333       0.008
   0.05208333 -0.03125000 -0.23958333       0.008
   0.08333333 -0.00000000 -0.33333333       0.008
   0.11458333  0.03125000 -0.42708333       0.008
  -0.10416667 -0.18750000  0.22916667       0.008
  -0.07291667 -0.15625000  0.13541667       0.008
  -0.04166667 -0.12500000  0.04166667       0.008
  -0.02083333 -0.18750000 -0.10416667       0.008
   0.01041667 -0.15625000 -0.19791667       0.008
   0.04166667 -0.12500000 -0.29166667       0.008
   0.07291667 -0.09375000 -0.38541667       0.008
   0.10416667 -0.06250000 -0.47916667       0.008
  -0.11458333 -0.28125000  0.17708333       0.008
  -0.08333333 -0.25000000  0.08333333       0.008
  -0.05208333 -0.21875000 -0.01041667       0.008
  -0.03125000 -0.28125000 -0.15625000       0.004
  -0.00000000 -0.25000000 -0.25000000       0.008
   0.03125000 -0.21875000 -0.34375000       0.008
   0.06250000 -0.18750000 -0.43750000       0.008
   0.09375000 -0.15625000 -0.53125000       0.004
  -0.08750000  0.01250000 -0.03750000       0.008
  -0.05625000  0.04375000 -0.13125000       0.008
  -0.02500000  0.07500000 -0.22500000       0.008
   0.00625000  0.10625000 -0.31875000       0.008
   0.03750000  0.13750000 -0.41250000       0.008
  -0.18125000 -0.08125000  0.24375000       0.008
  -0.15000000 -0.05000000  0.15000000       0.008
  -0.11875000 -0.01875000  0.05625000       0.008
  -0.09791667 -0.08125000 -0.08958333       0.008
  -0.06666667 -0.05000000 -0.18333333       0.008
  -0.03541667 -0.01875000 -0.27708333       0.008
  -0.00416667  0.01250000 -0.37083333       0.008
   0.02708333  0.04375000 -0.46458333       0.008
  -0.19166667 -0.17500000  0.19166667       0.008
  -0.16041667 -0.14375000  0.09791667       0.008
  -0.12916667 -0.11250000  0.00416667       0.008
  -0.10833333 -0.17500000 -0.14166667       0.008
  -0.07708333 -0.14375000 -0.23541667       0.008
  -0.04583333 -0.11250000 -0.32916667       0.008
  -0.01458333 -0.08125000 -0.42291667       0.008
   0.01666667 -0.05000000 -0.51666667       0.008
  -0.20208333 -0.26875000  0.13958333       0.008
  -0.17083333 -0.23750000  0.04583333       0.008
  -0.13958333 -0.20625000 -0.04791667       0.008
  -0.11875000 -0.26875000 -0.19375000       0.008
  -0.08750000 -0.23750000 -0.28750000       0.008
  -0.05625000 -0.20625000 -0.38125000       0.008
  -0.02500000 -0.17500000 -0.47500000       0.008
   0.00625000 -0.14375000 -0.56875000       0.008
  -0.21250000 -0.36250000  0.08750000       0.008
  -0.18125000 -0.33125000 -0.00625000       0.008
  -0.15000000 -0.30000000 -0.10000000       0.008
  -0.06666667  0.20000000  0.06666667       0.008
  -0.03541667  0.23125000 -0.02708333       0.008
  -0.00416667  0.26250000 -0.12083333       0.008
   0.02708333  0.29375000 -0.21458333       0.008
   0.05833333  0.32500000 -0.30833333       0.008
  -0.16041667  0.10625000  0.34791667       0.008
  -0.12916667  0.13750000  0.25416667       0.008
  -0.09791667  0.16875000  0.16041667       0.008
  -0.07708333  0.10625000  0.01458333       0.008
  -0.04583333  0.13750000 -0.07916667       0.008
  -0.01458333  0.16875000 -0.17291667       0.008
   0.01666667  0.20000000 -0.26666667       0.008
   0.04791667  0.23125000 -0.36041667       0.008
  -0.17083333  0.01250000  0.29583333       0.008
  -0.13958333  0.04375000  0.20208333       0.008
  -0.10833333  0.07500000  0.10833333       0.008
  -0.17500000  0.02500000 -0.07500000       0.008
  -0.14375000  0.05625000 -0.16875000       0.008
  -0.11250000  0.08750000 -0.26250000       0.008
  -0.08125000  0.11875000 -0.35625000       0.008
  -0.05000000  0.15000000 -0.45000000       0.008
  -0.26875000 -0.06875000  0.20625000       0.008
  -0.23750000 -0.03750000  0.11250000       0.008
  -0.20625000 -0.00625000  0.01875000       0.008
  -0.18541667 -0.06875000 -0.12708333       0.008
  -0.15416667 -0.03750000 -0.22083333       0.008
  -0.12291667 -0.00625000 -0.31458333       0.008
  -0.09166667  0.02500000 -0.40833333       0.008
  -0.06041667  0.05625000 -0.50208333       0.008
  -0.27916667 -0.16250000  0.15416667       0.008
  -0.24791667 -0.13125000  0.06041667       0.008
  -0.21666667 -0.10000000 -0.03333333       0.008
  -0.19583333 -0.16250000 -0.17916667       0.008
  -0.16458333 -0.13125000 -0.27291667       0.008
  -0.13333333 -0.10000000 -0.36666667       0.008
  -0.10208333 -0.06875000 -0.46041667       0.008
  -0.07083333 -0.03750000 -0.55416667       0.008
  -0.28958333 -0.25625000  0.10208333       0.008
  -0.25833333 -0.22500000  0.00833333       0.008
  -0.22708333 -0.19375000 -0.08541667       0.008
  -0.20625000 -0.25625000 -0.23125000       0.008
  -0.17500000 -0.22500000 -0.32500000       0.008
  -0.14375000 -0.19375000 -0.41875000       0.008
  -0.11250000 -0.16250000 -0.51250000       0.008
  -0.08125000 -0.13125000 -0.60625000       0.008
  -0.30000000 -0.35000000  0.05000000       0.008
  -0.26875000 -0.31875000 -0.04375000       0.008
  -0.23750000 -0.28750000 -0.13750000       0.008
  -0.15416667  0.21250000  0.02916667       0.008
  -0.12291667  0.24375000 -0.06458333       0.008
  -0.09166667  0.27500000 -0.15833333       0.008
  -0.06041667  0.30625000 -0.25208333       0.008
  -0.02916667  0.33750000 -0.34583333       0.008
  -0.24791667  0.11875000  0.31041667       0.008
  -0.21666667  0.15000000  0.21666667       0.008
  -0.18541667  0.18125000  0.12291667       0.008
  -0.16458333  0.11875000 -0.02291667       0.008
  -0.13333333  0.15000000 -0.11666667       0.008
  -0.10208333  0.18125000 -0.21041667       0.008
  -0.07083333  0.21250000 -0.30416667       0.008
  -0.03958333  0.24375000 -0.39791667       0.008
  -0.25833333  0.02500000  0.25833333       0.008
  -0.22708333  0.05625000  0.16458333       0.008
  -0.19583333  0.08750000  0.07083333       0.008
 
 k-points in reciprocal lattice and weights: read from INCAR                         
   0.00000000  0.00000000  0.00000000       0.004
   0.12500000  0.00000000  0.00000000       0.008
   0.25000000  0.00000000  0.00000000       0.008
   0.37500000  0.00000000  0.00000000       0.008
   0.50000000  0.00000000  0.00000000       0.004
   0.00000000  0.16666667  0.00000000       0.008
   0.12500000  0.16666667  0.00000000       0.008
   0.25000000  0.16666667  0.00000000       0.008
   0.37500000  0.16666667  0.00000000       0.008
   0.50000000  0.16666667  0.00000000       0.008
  -0.37500000  0.16666667  0.00000000       0.008
  -0.25000000  0.16666667  0.00000000       0.008
  -0.12500000  0.16666667  0.00000000       0.008
   0.00000000  0.33333333  0.00000000       0.008
   0.12500000  0.33333333  0.00000000       0.008
   0.25000000  0.33333333  0.00000000       0.008
   0.37500000  0.33333333  0.00000000       0.008
   0.50000000  0.33333333  0.00000000       0.008
  -0.37500000  0.33333333  0.00000000       0.008
  -0.25000000  0.33333333  0.00000000       0.008
  -0.12500000  0.33333333  0.00000000       0.008
   0.00000000  0.50000000  0.00000000       0.004
   0.12500000  0.50000000  0.00000000       0.008
   0.25000000  0.50000000  0.00000000       0.008
   0.37500000  0.50000000  0.00000000       0.008
   0.50000000  0.50000000  0.00000000       0.004
   0.00000000  0.00000000  0.20000000       0.008
   0.12500000  0.00000000  0.20000000       0.008
   0.25000000  0.00000000  0.20000000       0.008
   0.37500000  0.00000000  0.20000000       0.008
   0.50000000  0.00000000  0.20000000       0.008
  -0.37500000  0.00000000  0.20000000       0.008
  -0.25000000  0.00000000  0.20000000       0.008
  -0.12500000  0.00000000  0.20000000       0.008
   0.00000000  0.16666667  0.20000000       0.008
   0.12500000  0.16666667  0.20000000       0.008
   0.25000000  0.16666667  0.20000000       0.008
   0.37500000  0.16666667  0.20000000       0.008
   0.50000000  0.16666667  0.20000000       0.008
  -0.37500000  0.16666667  0.20000000       0.008
  -0.25000000  0.16666667  0.20000000       0.008
  -0.12500000  0.16666667  0.20000000       0.008
   0.00000000  0.33333333  0.20000000       0.008
   0.12500000  0.33333333  0.20000000       0.008
   0.25000000  0.33333333  0.20000000       0.008
   0.37500000  0.33333333  0.20000000       0.008
   0.50000000  0.33333333  0.20000000       0.008
  -0.37500000  0.33333333  0.20000000       0.008
  -0.25000000  0.33333333  0.20000000       0.008
  -0.12500000  0.33333333  0.20000000       0.008
   0.00000000  0.50000000  0.20000000       0.008
   0.12500000  0.50000000  0.20000000       0.008
   0.25000000  0.50000000  0.20000000       0.008
   0.37500000  0.50000000  0.20000000       0.008
   0.50000000  0.50000000  0.20000000       0.008
  -0.37500000  0.50000000  0.20000000       0.008
  -0.25000000  0.50000000  0.20000000       0.008
  -0.12500000  0.50000000  0.20000000       0.008
   0.00000000 -0.33333333  0.20000000       0.008
   0.12500000 -0.33333333  0.20000000       0.008
   0.25000000 -0.33333333  0.20000000       0.008
   0.37500000 -0.33333333  0.20000000       0.008
   0.50000000 -0.33333333  0.20000000       0.008
  -0.37500000 -0.33333333  0.20000000       0.008
  -0.25000000 -0.33333333  0.20000000       0.008
  -0.12500000 -0.33333333  0.20000000       0.008
   0.00000000 -0.16666667  0.20000000       0.008
   0.12500000 -0.16666667  0.20000000       0.008
   0.25000000 -0.16666667  0.20000000       0.008
   0.37500000 -0.16666667  0.20000000       0.008
   0.50000000 -0.16666667  0.20000000       0.008
  -0.37500000 -0.16666667  0.20000000       0.008
  -0.25000000 -0.16666667  0.20000000       0.008
  -0.12500000 -0.16666667  0.20000000       0.008
   0.00000000  0.00000000  0.40000000       0.008
   0.12500000  0.00000000  0.40000000       0.008
   0.25000000  0.00000000  0.40000000       0.008
   0.37500000  0.00000000  0.40000000       0.008
   0.50000000  0.00000000  0.40000000       0.008
  -0.37500000  0.00000000  0.40000000       0.008
  -0.25000000  0.00000000  0.40000000       0.008
  -0.12500000  0.00000000  0.40000000       0.008
   0.00000000  0.16666667  0.40000000       0.008
   0.12500000  0.16666667  0.40000000       0.008
   0.25000000  0.16666667  0.40000000       0.008
   0.37500000  0.16666667  0.40000000       0.008
   0.50000000  0.16666667  0.40000000       0.008
  -0.37500000  0.16666667  0.40000000       0.008
  -0.25000000  0.16666667  0.40000000       0.008
  -0.12500000  0.16666667  0.40000000       0.008
   0.00000000  0.33333333  0.40000000       0.008
   0.12500000  0.33333333  0.40000000       0.008
   0.25000000  0.33333333  0.40000000       0.008
   0.37500000  0.33333333  0.40000000       0.008
   0.50000000  0.33333333  0.40000000       0.008
  -0.37500000  0.33333333  0.40000000       0.008
  -0.25000000  0.33333333  0.40000000       0.008
  -0.12500000  0.33333333  0.40000000       0.008
   0.00000000  0.50000000  0.40000000       0.008
   0.12500000  0.50000000  0.40000000       0.008
   0.25000000  0.50000000  0.40000000       0.008
   0.37500000  0.50000000  0.40000000       0.008
   0.50000000  0.50000000  0.40000000       0.008
  -0.37500000  0.50000000  0.40000000       0.008
  -0.25000000  0.50000000  0.40000000       0.008
  -0.12500000  0.50000000  0.40000000       0.008
   0.00000000 -0.33333333  0.40000000       0.008
   0.12500000 -0.33333333  0.40000000       0.008
   0.25000000 -0.33333333  0.40000000       0.008
   0.37500000 -0.33333333  0.40000000       0.008
   0.50000000 -0.33333333  0.40000000       0.008
  -0.37500000 -0.33333333  0.40000000       0.008
  -0.25000000 -0.33333333  0.40000000       0.008
  -0.12500000 -0.33333333  0.40000000       0.008
   0.00000000 -0.16666667  0.40000000       0.008
   0.12500000 -0.16666667  0.40000000       0.008
   0.25000000 -0.16666667  0.40000000       0.008
   0.37500000 -0.16666667  0.40000000       0.008
   0.50000000 -0.16666667  0.40000000       0.008
  -0.37500000 -0.16666667  0.40000000       0.008
  -0.25000000 -0.16666667  0.40000000       0.008
  -0.12500000 -0.16666667  0.40000000       0.008
 
 position of ions in fractional coordinates (direct lattice) 
   0.24901764  0.68996121  0.81355624
   0.00202188  0.24950171  0.74977708
   0.24952567  0.93842373  0.56144748
   0.00094813  0.49573351  0.49938590
   0.00316473  0.74793025  0.25028031
   0.74530531  0.56630224  0.93731399
   0.50514339  0.12746839  0.87534868
   0.74455857  0.80599457  0.68611648
   0.50487419  0.37916087  0.62398554
   0.50336321  0.61959330  0.37421370
   0.25315666  0.19164394  0.31363011
   0.49929223  0.88309835  0.12320165
   0.24552367  0.43867844  0.06262792
   0.00024700  0.99943000  0.00239141
   0.74346172  0.06351826  0.43725691
   0.75039599  0.30356124  0.18946660
 
 position of ions in cartesian coordinates  (Angst):
  -5.37180811 -1.80056616 -3.57777550
  -5.35729199  0.00588772 -1.79343905
  -3.56832236 -3.58268272 -3.57307407
  -3.56891445 -1.76402386 -1.78216550
  -1.78384725 -3.55774294 -1.79561530
  -5.36956178 -0.02911375 -5.35218048
  -5.35579926  1.78408031 -3.59842312
  -3.57483438 -1.76481425 -5.32894538
  -3.55903397 -0.01541338 -3.59804944
  -1.77586624 -1.75390033 -3.57595348
  -1.78993775 -0.01455929 -1.80821244
   0.01159306 -3.62290706 -3.58373098
  -0.00891606 -1.80159217 -1.77383226
  -0.01665705 -5.35472724 -1.79163881
  -1.79744907  1.76991786 -3.55301127
  -0.01335334  0.05215725 -3.56395292
 


--------------------------------------------------------------------------------------------------------


 k-point  1 :   0.0000 0.0000 0.0000  plane waves:    4921
 k-point  2 :   0.1250 0.0000 0.0000  plane waves:    4930
 k-point  3 :   0.2500 0.0000 0.0000  plane waves:    4920
 k-point  4 :   0.3750 0.0000 0.0000  plane waves:    4927
 k-point  5 :   0.5000 0.0000 0.0000  plane waves:    4916
 k-point  6 :   0.0000 0.1667 0.0000  plane waves:    4914
 k-point  7 :   0.1250 0.1667 0.0000  plane waves:    4919
 k-point  8 :   0.2500 0.1667 0.0000  plane waves:    4918
 k-point  9 :   0.3750 0.1667 0.0000  plane waves:    4915
 k-point 10 :   0.5000 0.1667 0.0000  plane waves:    4933
 k-point 11 :  -0.3750 0.1667 0.0000  plane waves:    4931
 k-point 12 :  -0.2500 0.1667 0.0000  plane waves:    4922
 k-point 13 :  -0.1250 0.1667 0.0000  plane waves:    4902
 k-point 14 :   0.0000 0.3333 0.0000  plane waves:    4909
 k-point 15 :   0.1250 0.3333 0.0000  plane waves:    4904
 k-point 16 :   0.2500 0.3333 0.0000  plane waves:    4901
 k-point 17 :   0.3750 0.3333 0.0000  plane waves:    4932
 k-point 18 :   0.5000 0.3333 0.0000  plane waves:    4926
 k-point 19 :  -0.3750 0.3333 0.0000  plane waves:    4935
 k-point 20 :  -0.2500 0.3333 0.0000  plane waves:    4907
 k-point 21 :  -0.1250 0.3333 0.0000  plane waves:    4912
 k-point 22 :   0.0000 0.5000 0.0000  plane waves:    4912
 k-point 23 :   0.1250 0.5000 0.0000  plane waves:    4903
 k-point 24 :   0.2500 0.5000 0.0000  plane waves:    4898
 k-point 25 :   0.3750 0.5000 0.0000  plane waves:    4921
 k-point 26 :   0.5000 0.5000 0.0000  plane waves:    4914
 k-point 27 :   0.0000 0.0000 0.2000  plane waves:    4945
 k-point 28 :   0.1250 0.0000 0.2000  plane waves:    4921
 k-point 29 :   0.2500 0.0000 0.2000  plane waves:    4923
 k-point 30 :   0.3750 0.0000 0.2000  plane waves:    4922
 k-point 31 :   0.5000 0.0000 0.2000  plane waves:    4927
 k-point 32 :  -0.3750 0.0000 0.2000  plane waves:    4925
 k-point 33 :  -0.2500 0.0000 0.2000  plane waves:    4935
 k-point 34 :  -0.1250 0.0000 0.2000  plane waves:    4916
 k-point 35 :   0.0000 0.1667 0.2000  plane waves:    4922
 k-point 36 :   0.1250 0.1667 0.2000  plane waves:    4912
 k-point 37 :   0.2500 0.1667 0.2000  plane waves:    4907
 k-point 38 :   0.3750 0.1667 0.2000  plane waves:    4915
 k-point 39 :   0.5000 0.1667 0.2000  plane waves:    4934
 k-point 40 :  -0.3750 0.1667 0.2000  plane waves:    4929
 k-point 41 :  -0.2500 0.1667 0.2000  plane waves:    4928
 k-point 42 :  -0.1250 0.1667 0.2000  plane waves:    4928
 k-point 43 :   0.0000 0.3333 0.2000  plane waves:    4923
 k-point 44 :   0.1250 0.3333 0.2000  plane waves:    4901
 k-point 45 :   0.2500 0.3333 0.2000  plane waves:    4908
 k-point 46 :   0.3750 0.3333 0.2000  plane waves:    4911
 k-point 47 :   0.5000 0.3333 0.2000  plane waves:    4932
 k-point 48 :  -0.3750 0.3333 0.2000  plane waves:    4934
 k-point 49 :  -0.2500 0.3333 0.2000  plane waves:    4929
 k-point 50 :  -0.1250 0.3333 0.2000  plane waves:    4918
 k-point 51 :   0.0000 0.5000 0.2000  plane waves:    4906
 k-point 52 :   0.1250 0.5000 0.2000  plane waves:    4903
 k-point 53 :   0.2500 0.5000 0.2000  plane waves:    4900
 k-point 54 :   0.3750 0.5000 0.2000  plane waves:    4904
 k-point 55 :   0.5000 0.5000 0.2000  plane waves:    4915
 k-point 56 :  -0.3750 0.5000 0.2000  plane waves:    4917
 k-point 57 :  -0.2500 0.5000 0.2000  plane waves:    4924
 k-point 58 :  -0.1250 0.5000 0.2000  plane waves:    4911
 k-point 59 :   0.0000-0.3333 0.2000  plane waves:    4906
 k-point 60 :   0.1250-0.3333 0.2000  plane waves:    4909
 k-point 61 :   0.2500-0.3333 0.2000  plane waves:    4917
 k-point 62 :   0.3750-0.3333 0.2000  plane waves:    4933
 k-point 63 :   0.5000-0.3333 0.2000  plane waves:    4929
 k-point 64 :  -0.3750-0.3333 0.2000  plane waves:    4926
 k-point 65 :  -0.2500-0.3333 0.2000  plane waves:    4932
 k-point 66 :  -0.1250-0.3333 0.2000  plane waves:    4911
 k-point 67 :   0.0000-0.1667 0.2000  plane waves:    4914
 k-point 68 :   0.1250-0.1667 0.2000  plane waves:    4913
 k-point 69 :   0.2500-0.1667 0.2000  plane waves:    4931
 k-point 70 :   0.3750-0.1667 0.2000  plane waves:    4946
 k-point 71 :   0.5000-0.1667 0.2000  plane waves:    4932
 k-point 72 :  -0.3750-0.1667 0.2000  plane waves:    4932
 k-point 73 :  -0.2500-0.1667 0.2000  plane waves:    4919
 k-point 74 :  -0.1250-0.1667 0.2000  plane waves:    4918
 k-point 75 :   0.0000 0.0000 0.4000  plane waves:    4923
 k-point 76 :   0.1250 0.0000 0.4000  plane waves:    4924
 k-point 77 :   0.2500 0.0000 0.4000  plane waves:    4930
 k-point 78 :   0.3750 0.0000 0.4000  plane waves:    4936
 k-point 79 :   0.5000 0.0000 0.4000  plane waves:    4936
 k-point 80 :  -0.3750 0.0000 0.4000  plane waves:    4933
 k-point 81 :  -0.2500 0.0000 0.4000  plane waves:    4926
 k-point 82 :  -0.1250 0.0000 0.4000  plane waves:    4922
 k-point 83 :   0.0000 0.1667 0.4000  plane waves:    4922
 k-point 84 :   0.1250 0.1667 0.4000  plane waves:    4918
 k-point 85 :   0.2500 0.1667 0.4000  plane waves:    4919
 k-point 86 :   0.3750 0.1667 0.4000  plane waves:    4924
 k-point 87 :   0.5000 0.1667 0.4000  plane waves:    4931
 k-point 88 :  -0.3750 0.1667 0.4000  plane waves:    4946
 k-point 89 :  -0.2500 0.1667 0.4000  plane waves:    4939
 k-point 90 :  -0.1250 0.1667 0.4000  plane waves:    4922
 k-point 91 :   0.0000 0.3333 0.4000  plane waves:    4927
 k-point 92 :   0.1250 0.3333 0.4000  plane waves:    4918
 k-point 93 :   0.2500 0.3333 0.4000  plane waves:    4910
 k-point 94 :   0.3750 0.3333 0.4000  plane waves:    4910
 k-point 95 :   0.5000 0.3333 0.4000  plane waves:    4921
 k-point 96 :  -0.3750 0.3333 0.4000  plane waves:    4930
 k-point 97 :  -0.2500 0.3333 0.4000  plane waves:    4933
 k-point 98 :  -0.1250 0.3333 0.4000  plane waves:    4928
 k-point 99 :   0.0000 0.5000 0.4000  plane waves:    4896
 k-point ** :   0.1250 0.5000 0.4000  plane waves:    4909
 k-point ** :   0.2500 0.5000 0.4000  plane waves:    4913
 k-point ** :   0.3750 0.5000 0.4000  plane waves:    4915
 k-point ** :   0.5000 0.5000 0.4000  plane waves:    4908
 k-point ** :  -0.3750 0.5000 0.4000  plane waves:    4919
 k-point ** :  -0.2500 0.5000 0.4000  plane waves:    4937
 k-point ** :  -0.1250 0.5000 0.4000  plane waves:    4916
 k-point ** :   0.0000-0.3333 0.4000  plane waves:    4909
 k-point ** :   0.1250-0.3333 0.4000  plane waves:    4918
 k-point ** :   0.2500-0.3333 0.4000  plane waves:    4928
 k-point ** :   0.3750-0.3333 0.4000  plane waves:    4935
 k-point ** :   0.5000-0.3333 0.4000  plane waves:    4929
 k-point ** :  -0.3750-0.3333 0.4000  plane waves:    4923
 k-point ** :  -0.2500-0.3333 0.4000  plane waves:    4919
 k-point ** :  -0.1250-0.3333 0.4000  plane waves:    4900
 k-point ** :   0.0000-0.1667 0.4000  plane waves:    4928
 k-point ** :   0.1250-0.1667 0.4000  plane waves:    4926
 k-point ** :   0.2500-0.1667 0.4000  plane waves:    4932
 k-point ** :   0.3750-0.1667 0.4000  plane waves:    4961
 k-point ** :   0.5000-0.1667 0.4000  plane waves:    4937
 k-point ** :  -0.3750-0.1667 0.4000  plane waves:    4931
 k-point ** :  -0.2500-0.1667 0.4000  plane waves:    4929
 k-point ** :  -0.1250-0.1667 0.4000  plane waves:    4908

 maximum and minimum number of plane-waves per node :       638      595

 maximum number of plane-waves:      4961
 maximum index in each direction: 
   IXMAX=    8   IYMAX=   10   IZMAX=   14
   IXMIN=   -8   IYMIN=  -11   IZMIN=  -14


 real space projection operators:
  total allocation   :      14661.84 KBytes
  max/ min on nodes  :       2105.02       1565.86


 parallel 3D FFT for wavefunctions:
    minimum data exchange during FFTs selected (reduces bandwidth)
 parallel 3D FFT for charge:
    minimum data exchange during FFTs selected (reduces bandwidth)


 total amount of memory used by VASP MPI-rank0   126661. kBytes
=======================================================================

   base      :      30000. kBytes
   nonlr-proj:       4431. kBytes
   fftplans  :       1321. kBytes
   grid      :       3242. kBytes
   one-center:         62. kBytes
   wavefun   :      87605. kBytes
 
     INWAV:  cpu time    0.0000: real time    0.0001
 initial charge density was supplied:
 number of electron     136.0000022 magnetization      32.5133809
 keeping initial charge density in first step


--------------------------------------------------------------------------------------------------------


 Maximum index for non-local projection operator         1050
 Maximum index for augmentation-charges          716 (set IRDMAX)


--------------------------------------------------------------------------------------------------------


 First call to EWALD:  gamma=   0.312
 Maximum number of real-space cells 3x 3x 2
 Maximum number of reciprocal cells 2x 3x 4

    FEWALD:  cpu time    0.0010: real time    0.0014


--------------------------------------- Iteration      1(   1)  ---------------------------------------


    POTLOK:  cpu time    0.0390: real time    0.0423
    SETDIJ:  cpu time    0.0090: real time    0.0093
     EDDAV:  cpu time   29.5305: real time   30.0174
 BZINTS: Fermi energy: 19.430830;136.000000 electrons
         Band energy:1862.148256;  BLOECHL correction: -0.057901
       DOS:  cpu time    0.3539: real time    0.3584
    --------------------------------------------
      LOOP:  cpu time   29.9324: real time   30.4275

 eigenvalue-minimisations  : 50028
 total energy-change (2. order) : 0.1156810E+04  (-0.5686721E+04)
 number of electron     136.0000022 magnetization      32.5133809
 augmentation part      136.0000022 magnetization      32.5133809

 Free energy of the ion-electron system (eV)
  ---------------------------------------------------
  alpha Z        PSCENC =       923.24942624
  Ewald energy   TEWEN  =    -10699.34444403
  -Hartree energ DENC   =     -2163.60739669
  -exchange      EXHF   =         0.00000000
  -V(xc)+E(xc)   XCENC  =       177.42390379
  PAW double counting   =     13213.25934330   -13598.75512539
  entropy T*S    EENTRO =         0.00000000
  eigenvalues    EBANDS =      1862.14825600
  atomic energy  EATOM  =     11442.43584605
  Solvation  Ediel_sol  =         0.00000000
  ---------------------------------------------------
  free energy    TOTEN  =      1156.80980927 eV

  energy without entropy =     1156.80980927  energy(sigma->0) =     1156.80980927


--------------------------------------------------------------------------------------------------------




--------------------------------------- Iteration      1(   2)  ---------------------------------------


     EDDAV:  cpu time   29.3575: real time   29.8518
 BZINTS: Fermi energy:  8.249470;136.000000 electrons
         Band energy: 714.720005;  BLOECHL correction: -0.029621
       DOS:  cpu time    0.3519: real time    0.3568
    --------------------------------------------
      LOOP:  cpu time   29.7095: real time   30.2086

 eigenvalue-minimisations  : 49776
 total energy-change (2. order) :-0.1147428E+04  (-0.1079937E+04)
 number of electron     136.0000022 magnetization      32.5133809
 augmentation part      136.0000022 magnetization      32.5133809

 Free energy of the ion-electron system (eV)
  ---------------------------------------------------
  alpha Z        PSCENC =       923.24942624
  Ewald energy   TEWEN  =    -10699.34444403
  -Hartree energ DENC   =     -2163.60739669
  -exchange      EXHF   =         0.00000000
  -V(xc)+E(xc)   XCENC  =       177.42390379
  PAW double counting   =     13213.25934330   -13598.75512539
  entropy T*S    EENTRO =         0.00000000
  eigenvalues    EBANDS =       714.72000526
  atomic energy  EATOM  =     11442.43584605
  Solvation  Ediel_sol  =         0.00000000
  ---------------------------------------------------
  free energy    TOTEN  =         9.38155852 eV

  energy without entropy =        9.38155852  energy(sigma->0) =        9.38155852


--------------------------------------------------------------------------------------------------------




--------------------------------------- Iteration      1(   3)  ---------------------------------------


     EDDAV:  cpu time   29.5685: real time   29.9988
 BZINTS: Fermi energy:  6.665137;136.000000 electrons
         Band energy: 590.195067;  BLOECHL correction: -0.048951
       DOS:  cpu time    0.3559: real time    0.3582
    --------------------------------------------
      LOOP:  cpu time   29.9245: real time   30.3570

 eigenvalue-minimisations  : 49827
 total energy-change (2. order) :-0.1245249E+03  (-0.1008678E+03)
 number of electron     136.0000022 magnetization      32.5133809
 augmentation part      136.0000022 magnetization      32.5133809

 Free energy of the ion-electron system (eV)
  ---------------------------------------------------
  alpha Z        PSCENC =       923.24942624
  Ewald energy   TEWEN  =    -10699.34444403
  -Hartree energ DENC   =     -2163.60739669
  -exchange      EXHF   =         0.00000000
  -V(xc)+E(xc)   XCENC  =       177.42390379
  PAW double counting   =     13213.25934330   -13598.75512539
  entropy T*S    EENTRO =         0.00000000
  eigenvalues    EBANDS =       590.19506671
  atomic energy  EATOM  =     11442.43584605
  Solvation  Ediel_sol  =         0.00000000
  ---------------------------------------------------
  free energy    TOTEN  =      -115.14338002 eV

  energy without entropy =     -115.14338002  energy(sigma->0) =     -115.14338002


--------------------------------------------------------------------------------------------------------




--------------------------------------- Iteration      1(   4)  ---------------------------------------


     EDDAV:  cpu time   31.4352: real time   31.6727
 BZINTS: Fermi energy:  6.630363;136.000000 electrons
         Band energy: 585.797111;  BLOECHL correction: -0.049391
       DOS:  cpu time    0.3709: real time    0.3710
    --------------------------------------------
      LOOP:  cpu time   31.8062: real time   32.0437

 eigenvalue-minimisations  : 54222
 total energy-change (2. order) :-0.4397956E+01  (-0.4332581E+01)
 number of electron     136.0000022 magnetization      32.5133809
 augmentation part      136.0000022 magnetization      32.5133809

 Free energy of the ion-electron system (eV)
  ---------------------------------------------------
  alpha Z        PSCENC =       923.24942624
  Ewald energy   TEWEN  =    -10699.34444403
  -Hartree energ DENC   =     -2163.60739669
  -exchange      EXHF   =         0.00000000
  -V(xc)+E(xc)   XCENC  =       177.42390379
  PAW double counting   =     13213.25934330   -13598.75512539
  entropy T*S    EENTRO =         0.00000000
  eigenvalues    EBANDS =       585.79711088
  atomic energy  EATOM  =     11442.43584605
  Solvation  Ediel_sol  =         0.00000000
  ---------------------------------------------------
  free energy    TOTEN  =      -119.54133586 eV

  energy without entropy =     -119.54133586  energy(sigma->0) =     -119.54133586


--------------------------------------------------------------------------------------------------------




--------------------------------------- Iteration      1(   5)  ---------------------------------------


     EDDAV:  cpu time   35.5256: real time   35.6742
 BZINTS: Fermi energy:  6.629999;136.000000 electrons
         Band energy: 585.748756;  BLOECHL correction: -0.049383
       DOS:  cpu time    0.3809: real time    0.3805
    --------------------------------------------
      LOOP:  cpu time   35.9065: real time   36.0546

 eigenvalue-minimisations  : 63327
 total energy-change (2. order) :-0.4835491E-01  (-0.4833374E-01)
 number of electron     136.0000022 magnetization      32.5133809
 augmentation part      136.0000022 magnetization      32.5133809

 Free energy of the ion-electron system (eV)
  ---------------------------------------------------
  alpha Z        PSCENC =       923.24942624
  Ewald energy   TEWEN  =    -10699.34444403
  -Hartree energ DENC   =     -2163.60739669
  -exchange      EXHF   =         0.00000000
  -V(xc)+E(xc)   XCENC  =       177.42390379
  PAW double counting   =     13213.25934330   -13598.75512539
  entropy T*S    EENTRO =         0.00000000
  eigenvalues    EBANDS =       585.74875597
  atomic energy  EATOM  =     11442.43584605
  Solvation  Ediel_sol  =         0.00000000
  ---------------------------------------------------
  free energy    TOTEN  =      -119.58969077 eV

  energy without entropy =     -119.58969077  energy(sigma->0) =     -119.58969077


--------------------------------------------------------------------------------------------------------




--------------------------------------- Iteration      1(   6)  ---------------------------------------


    EDDIAG:  cpu time    4.0404: real time    4.0514
  RMM-DIIS:  cpu time   20.5809: real time   20.6866
    ORTHCH:  cpu time    0.4939: real time    0.4965
 BZINTS: Fermi energy:  6.629986;136.000000 electrons
         Band energy: 585.747595;  BLOECHL correction: -0.049383
       DOS:  cpu time    0.3539: real time    0.3545
    --------------------------------------------
      LOOP:  cpu time   25.4691: real time   25.5890

 eigenvalue-minimisations  : 51868
 total energy-change (2. order) :-0.1160678E-02  (-0.1160679E-02)
 number of electron     136.0000022 magnetization      32.5133809
 augmentation part      136.0000022 magnetization      32.5133809

 Free energy of the ion-electron system (eV)
  ---------------------------------------------------
  alpha Z        PSCENC =       923.24942624
  Ewald energy   TEWEN  =    -10699.34444403
  -Hartree energ DENC   =     -2163.60739669
  -exchange      EXHF   =         0.00000000
  -V(xc)+E(xc)   XCENC  =       177.42390379
  PAW double counting   =     13213.25934330   -13598.75512539
  entropy T*S    EENTRO =         0.00000000
  eigenvalues    EBANDS =       585.74759529
  atomic energy  EATOM  =     11442.43584605
  Solvation  Ediel_sol  =         0.00000000
  ---------------------------------------------------
  free energy    TOTEN  =      -119.59085145 eV

  energy without entropy =     -119.59085145  energy(sigma->0) =     -119.59085145


--------------------------------------------------------------------------------------------------------




--------------------------------------- Iteration      1(   7)  ---------------------------------------


    EDDIAG:  cpu time    4.0854: real time    4.1191
  RMM-DIIS:  cpu time   30.0204: real time   30.2896
    ORTHCH:  cpu time    0.5149: real time    0.5167
 BZINTS: Fermi energy:  6.629983;136.000000 electrons
         Band energy: 585.747306;  BLOECHL correction: -0.049382
       DOS:  cpu time    0.3699: real time    0.3702
    --------------------------------------------
      LOOP:  cpu time   34.9907: real time   35.2956

 eigenvalue-minimisations  : 76208
 total energy-change (2. order) :-0.2891580E-03  (-0.2880108E-03)
 number of electron     136.0000022 magnetization      32.5133809
 augmentation part      136.0000022 magnetization      32.5133809

 Free energy of the ion-electron system (eV)
  ---------------------------------------------------
  alpha Z        PSCENC =       923.24942624
  Ewald energy   TEWEN  =    -10699.34444403
  -Hartree energ DENC   =     -2163.60739669
  -exchange      EXHF   =         0.00000000
  -V(xc)+E(xc)   XCENC  =       177.42390379
  PAW double counting   =     13213.25934330   -13598.75512539
  entropy T*S    EENTRO =         0.00000000
  eigenvalues    EBANDS =       585.74730613
  atomic energy  EATOM  =     11442.43584605
  Solvation  Ediel_sol  =         0.00000000
  ---------------------------------------------------
  free energy    TOTEN  =      -119.59114060 eV

  energy without entropy =     -119.59114060  energy(sigma->0) =     -119.59114060


--------------------------------------------------------------------------------------------------------




--------------------------------------- Iteration      1(   8)  ---------------------------------------


    EDDIAG:  cpu time    4.1614: real time    4.1703
  RMM-DIIS:  cpu time   29.3445: real time   29.4506
    ORTHCH:  cpu time    0.5139: real time    0.5191
 BZINTS: Fermi energy:  6.629983;136.000000 electrons
         Band energy: 585.747303;  BLOECHL correction: -0.049382
       DOS:  cpu time    0.3709: real time    0.3714
    --------------------------------------------
      LOOP:  cpu time   34.3908: real time   34.5114

 eigenvalue-minimisations  : 72876
 total energy-change (2. order) :-0.2944744E-05  (-0.4587297E-05)
 number of electron     136.0000022 magnetization      32.5133809
 augmentation part      136.0000022 magnetization      32.5133809

 Free energy of the ion-electron system (eV)
  ---------------------------------------------------
  alpha Z        PSCENC =       923.24942624
  Ewald energy   TEWEN  =    -10699.34444403
  -Hartree energ DENC   =     -2163.60739669
  -exchange      EXHF   =         0.00000000
  -V(xc)+E(xc)   XCENC  =       177.42390379
  PAW double counting   =     13213.25934330   -13598.75512539
  entropy T*S    EENTRO =         0.00000000
  eigenvalues    EBANDS =       585.74730319
  atomic energy  EATOM  =     11442.43584605
  Solvation  Ediel_sol  =         0.00000000
  ---------------------------------------------------
  free energy    TOTEN  =      -119.59114355 eV

  energy without entropy =     -119.59114355  energy(sigma->0) =     -119.59114355


--------------------------------------------------------------------------------------------------------




--------------------------------------- Iteration      1(   9)  ---------------------------------------


    EDDIAG:  cpu time    4.3553: real time    4.4188
  RMM-DIIS:  cpu time   14.2658: real time   14.3165
    ORTHCH:  cpu time    0.5149: real time    0.5200
 BZINTS: Fermi energy:  6.629983;136.000000 electrons
         Band energy: 585.747303;  BLOECHL correction: -0.049382
       DOS:  cpu time    0.3609: real time    0.3613
    --------------------------------------------
      LOOP:  cpu time   19.4970: real time   19.6166

 eigenvalue-minimisations  : 33058
 total energy-change (2. order) :-0.1254284E-06  (-0.1387864E-06)
 number of electron     136.0000022 magnetization      32.5133809
 augmentation part      136.0000022 magnetization      32.5133809

 Free energy of the ion-electron system (eV)
  ---------------------------------------------------
  alpha Z        PSCENC =       923.24942624
  Ewald energy   TEWEN  =    -10699.34444403
  -Hartree energ DENC   =     -2163.60739669
  -exchange      EXHF   =         0.00000000
  -V(xc)+E(xc)   XCENC  =       177.42390379
  PAW double counting   =     13213.25934330   -13598.75512539
  entropy T*S    EENTRO =         0.00000000
  eigenvalues    EBANDS =       585.74730306
  atomic energy  EATOM  =     11442.43584605
  Solvation  Ediel_sol  =         0.00000000
  ---------------------------------------------------
  free energy    TOTEN  =      -119.59114367 eV

  energy without entropy =     -119.59114367  energy(sigma->0) =     -119.59114367


--------------------------------------------------------------------------------------------------------




 average (electrostatic) potential at core
  the test charge radii are     0.9791  1.0103
  (the norm of the test charge is              1.0000)
       1 -84.7135       2 -84.7078       3 -84.7041       4 -84.7192       5 -42.5610
       6 -42.5681       7 -42.6027       8 -42.6233       9 -42.6070      10 -42.5556
      11 -42.5388      12 -42.5236      13 -42.5528      14 -42.5453      15 -42.5946
      16 -42.5196
 
 
 
 E-fermi :   6.6300     XC(G=0): -13.0448     alpha+bet :-14.0976


 spin component 1

 k-point     1 :       0.0000    0.0000    0.0000
  band No.  band energies     occupation 
      1      -1.9940      1.00000
      2       0.6063      1.00000
      3       0.6308      1.00000
      4       1.6746      1.00000
      5       1.9858      1.00000
      6       1.9964      1.00000
      7       2.3385      1.00000
      8       2.3600      1.00000
      9       2.3748      1.00000
     10       2.4067      1.00000
     11       2.4275      1.00000
     12       2.4572      1.00000
     13       2.4992      1.00000
     14       2.5747      1.00000
     15       2.6219      1.00000
     16       2.6488      1.00000
     17       2.8242      1.00000
     18       2.8738      1.00000
     19       2.8868      1.00000
     20       3.0017      1.00000
     21       3.0550      1.00000
     22       3.0640      1.00000
     23       3.2182      1.00000
     24       3.2517      1.00000
     25       3.2674      1.00000
     26       3.3192      1.00000
     27       3.3312      1.00000
     28       3.4226      1.00000
     29       3.4459      1.00000
     30       3.5006      1.00000
     31       3.7741      1.00000
     32       3.8407      1.00000
     33       3.9022      1.00000
     34       3.9258      1.00000
     35       4.0713      1.00000
     36       4.0803      1.00000
     37       4.0890      1.00000
     38       4.1044      1.00000
     39       4.1356      1.00000
     40       4.1430      1.00000
     41       4.1645      1.00000
     42       4.1896      1.00000
     43       4.2011      1.00000
     44       4.2788      1.00000
     45       4.2893      1.00000
     46       4.3332      1.00000
     47       4.3448      1.00000
     48       4.4163      1.00000
     49       4.4847      1.00000
     50       4.7519      1.00000
     51       4.7987      1.00000
     52       4.8211      1.00000
     53       4.8507      1.00000
     54       4.9014      1.00000
     55       4.9273      1.00000
     56       5.0167      1.00000
     57       5.0387      1.00000
     58       5.0501      1.00000
     59       5.0672      1.00000
     60       5.1968      1.00000
     61       5.2150      1.00000
     62       5.3090      1.00000
     63       5.3129      1.00000
     64       5.3238      1.00000
     65       5.3316      1.00000
     66       5.4097      1.00000
     67       5.4347      1.00000
     68       5.4894      1.00000
     69       5.5118      1.00000
     70       5.7489      1.00000
     71       5.8316      1.00000
     72       5.8585      1.00000
     73       5.8974      1.00000
     74       5.9865      1.00000
     75       6.0492      1.00000
     76       6.1402      1.00000
     77       6.1446      1.00000
     78       6.1580      1.00000
     79       6.1902      1.00000
     80       6.2262      1.00000
     81       6.2380      1.00000
     82       6.2459      1.00000
     83       6.2866      1.00000
     84       6.4994      1.02155
     85       7.0518     -0.00872
     86       7.0600      0.00000
     87       7.9971      0.00000
     88       8.0871      0.00000
     89       9.0926      0.00000
     90       9.2184      0.00000
     91      10.2343      0.00000
     92      10.3091      0.00000
     93      11.6199      0.00000
     94      11.7040      0.00000
     95      12.2027      0.00000
     96      12.2749      0.00000
     97      12.7766      0.00000
     98      13.2667      0.00000
     99      13.3904      0.00000
    100      14.2496      0.00000
    101      14.4630      0.00000
    102      14.8733      0.00000

 k-point     2 :       0.1250    0.0000    0.0000
  band No.  band energies     occupation 
      1      -1.8553      1.00000
      2       0.5881      1.00000
      3       0.8211      1.00000
      4       1.7606      1.00000
      5       1.8182      1.00000
      6       2.1492      1.00000
      7       2.1611      1.00000
      8       2.1962      1.00000
      9       2.2485      1.00000
     10       2.3953      1.00000
     11       2.4544      1.00000
     12       2.4869      1.00000
     13       2.5131      1.00000
     14       2.5384      1.00000
     15       2.5884      1.00000
     16       2.6887      1.00000
     17       2.8516      1.00000
     18       2.8686      1.00000
     19       2.9140      1.00000
     20       2.9694      1.00000
     21       3.0509      1.00000
     22       3.0916      1.00000
     23       3.1371      1.00000
     24       3.1540      1.00000
     25       3.1835      1.00000
     26       3.2996      1.00000
     27       3.4026      1.00000
     28       3.4258      1.00000
     29       3.5670      1.00000
     30       3.6467      1.00000
     31       3.7841      1.00000
     32       3.7945      1.00000
     33       3.8286      1.00000
     34       3.9490      1.00000
     35       4.0182      1.00000
     36       4.1211      1.00000
     37       4.1366      1.00000
     38       4.1416      1.00000
     39       4.1663      1.00000
     40       4.1813      1.00000
     41       4.1998      1.00000
     42       4.2270      1.00000
     43       4.2498      1.00000
     44       4.2657      1.00000
     45       4.2991      1.00000
     46       4.3409      1.00000
     47       4.4303      1.00000
     48       4.5091      1.00000
     49       4.5743      1.00000
     50       4.6568      1.00000
     51       4.7024      1.00000
     52       4.7896      1.00000
     53       4.8906      1.00000
     54       4.8984      1.00000
     55       4.9485      1.00000
     56       4.9934      1.00000
     57       5.1020      1.00000
     58       5.1204      1.00000
     59       5.1488      1.00000
     60       5.1754      1.00000
     61       5.1860      1.00000
     62       5.2590      1.00000
     63       5.2782      1.00000
     64       5.2994      1.00000
     65       5.3244      1.00000
     66       5.3345      1.00000
     67       5.4136      1.00000
     68       5.4746      1.00000
     69       5.5789      1.00000
     70       5.6787      1.00000
     71       5.7242      1.00000
     72       5.8063      1.00000
     73       5.9168      1.00000
     74       5.9675      1.00000
     75       6.0473      1.00000
     76       6.1060      1.00000
     77       6.1172      1.00000
     78       6.1554      1.00000
     79       6.1862      1.00000
     80       6.1902      1.00000
     81       6.2113      1.00000
     82       6.2481      1.00000
     83       6.3319      1.00000
     84       6.6936      0.60624
     85       7.2922     -0.02010
     86       7.4606      0.00000
     87       7.5619      0.00000
     88       7.8892      0.00000
     89       8.1213      0.00000
     90       9.1732      0.00000
     91      10.2151      0.00000
     92      10.6960      0.00000
     93      11.0075      0.00000
     94      11.0408      0.00000
     95      11.9141      0.00000
     96      12.7208      0.00000
     97      12.8334      0.00000
     98      13.5197      0.00000
     99      13.6871      0.00000
    100      13.9796      0.00000
    101      14.3830      0.00000
    102      14.7545      0.00000

 k-point     3 :       0.2500    0.0000    0.0000
  band No.  band energies     occupation 
      1      -1.4476      1.00000
      2       0.7446      1.00000
      3       1.1550      1.00000
      4       1.6788      1.00000
      5       1.7767      1.00000
      6       1.9050      1.00000
      7       1.9173      1.00000
      8       2.0130      1.00000
      9       2.3284      1.00000
     10       2.3669      1.00000
     11       2.3940      1.00000
     12       2.4237      1.00000
     13       2.4768      1.00000
     14       2.5098      1.00000
     15       2.5501      1.00000
     16       2.6753      1.00000
     17       2.8146      1.00000
     18       2.8777      1.00000
     19       2.9741      1.00000
     20       2.9981      1.00000
     21       3.0199      1.00000
     22       3.0382      1.00000
     23       3.0593      1.00000
     24       3.0763      1.00000
     25       3.1778      1.00000
     26       3.2489      1.00000
     27       3.3839      1.00000
     28       3.4979      1.00000
     29       3.6710      1.00000
     30       3.7176      1.00000
     31       3.8128      1.00000
     32       3.8224      1.00000
     33       3.8714      1.00000
     34       3.9169      1.00000
     35       3.9915      1.00000
     36       4.0025      1.00000
     37       4.0885      1.00000
     38       4.1411      1.00000
     39       4.1633      1.00000
     40       4.2105      1.00000
[...]
     94      12.5100      0.00000
     95      12.9433      0.00000
     96      13.1484      0.00000
     97      14.1871      0.00000
     98      14.3118      0.00000
     99      14.8063      0.00000
    100      14.8610      0.00000
    101      15.1966      0.00000
    102      15.6060      0.00000


--------------------------------------------------------------------------------------------------------


 soft charge-density along one line, spin component           1
         0         1         2         3         4         5         6         7         8         9
 total charge-density along one line
 
 soft charge-density along one line, spin component           2
         0         1         2         3         4         5         6         7         8         9
 total charge-density along one line
 
 pseudopotential strength for first ion, spin component:           1
 -2.535  -0.001   0.002  -0.003   0.001  -3.129  -0.001   0.002
 -0.001  -2.536  -0.005  -0.006   0.008  -0.001  -3.130  -0.005
  0.002  -0.005  -2.530  -0.003  -0.002   0.002  -0.005  -3.124
 -0.003  -0.006  -0.003  -2.533  -0.002  -0.002  -0.006  -0.003
  0.001   0.008  -0.002  -0.002  -2.532   0.001   0.008  -0.002
 -3.129  -0.001   0.002  -0.002   0.001  -3.655  -0.001   0.002
 -0.001  -3.130  -0.005  -0.006   0.008  -0.001  -3.656  -0.005
  0.002  -0.005  -3.124  -0.003  -0.002   0.002  -0.005  -3.651
 -0.002  -0.006  -0.003  -3.127  -0.002  -0.002  -0.006  -0.003
  0.001   0.008  -0.002  -0.002  -3.127   0.001   0.007  -0.002
  0.001   0.002  -0.000   0.001  -0.000   0.001   0.002  -0.000
  0.002   0.003  -0.001   0.001  -0.001   0.002   0.003  -0.001
 -0.004  -0.003   0.001  -0.000   0.002  -0.004  -0.003   0.001
 -0.000  -0.002  -0.004  -0.004   0.000  -0.000  -0.002  -0.004
 -0.002  -0.000   0.002  -0.003  -0.004  -0.002  -0.000   0.002
 -0.006  -0.004   0.001  -0.000   0.002  -0.005  -0.004   0.001
 -0.000  -0.002  -0.005  -0.006   0.000  -0.000  -0.002  -0.005
 -0.002  -0.000   0.003  -0.004  -0.006  -0.002  -0.000   0.003
 pseudopotential strength for first ion, spin component:           2
 -1.894  -0.001   0.007  -0.005  -0.002  -2.519  -0.001   0.007
 -0.001  -1.894   0.004   0.002  -0.006  -0.001  -2.518   0.004
  0.007   0.004  -1.894   0.004   0.000   0.007   0.004  -2.518
 -0.005   0.002   0.004  -1.893   0.002  -0.005   0.002   0.004
 -0.002  -0.006   0.000   0.002  -1.894  -0.002  -0.006   0.000
 -2.519  -0.001   0.007  -0.005  -0.002  -3.074  -0.001   0.007
 -0.001  -2.518   0.004   0.002  -0.006  -0.001  -3.074   0.004
  0.007   0.004  -2.518   0.004   0.000   0.007   0.004  -3.074
 -0.005   0.002   0.004  -2.517   0.002  -0.005   0.002   0.004
 -0.002  -0.006   0.000   0.002  -2.518  -0.002  -0.005   0.000
  0.000  -0.000  -0.000   0.000   0.000   0.000  -0.000   0.000
  0.001  -0.000  -0.000   0.000   0.000   0.001  -0.000   0.000
 -0.001  -0.001   0.000  -0.000   0.001  -0.001  -0.001   0.000
 -0.000  -0.001  -0.001  -0.001  -0.000  -0.000  -0.001  -0.001
 -0.001  -0.000   0.001  -0.001  -0.001  -0.001  -0.000   0.001
 -0.002  -0.001   0.000  -0.000   0.001  -0.001  -0.001   0.000
 -0.000  -0.001  -0.001  -0.001  -0.000  -0.000  -0.001  -0.001
 -0.001  -0.000   0.001  -0.001  -0.001  -0.001  -0.000   0.001
 total augmentation occupancy for first ion, spin component:           1
  1.800   0.000   0.000   0.000   0.000   0.000   0.000   0.000   0.000   0.000   0.000   0.000   0.000   0.000   0.000   0.000
  0.000   1.800   0.000   0.000   0.000   0.000   0.000   0.000   0.000   0.000   0.000   0.000   0.000   0.000   0.000   0.000
  0.000   0.000   1.800   0.000   0.000   0.000   0.000   0.000   0.000   0.000   0.000   0.000   0.000   0.000   0.000   0.000
  0.000   0.000   0.000   1.800   0.000   0.000   0.000   0.000   0.000   0.000   0.000   0.000   0.000   0.000   0.000   0.000
  0.000   0.000   0.000   0.000   1.800   0.000   0.000   0.000   0.000   0.000   0.000   0.000   0.000   0.000   0.000   0.000
  0.000   0.000   0.000   0.000   0.000   0.000   0.000   0.000   0.000   0.000   0.000   0.000   0.000   0.000   0.000   0.000
  0.000   0.000   0.000   0.000   0.000   0.000   0.000   0.000   0.000   0.000   0.000   0.000   0.000   0.000   0.000   0.000
  0.000   0.000   0.000   0.000   0.000   0.000   0.000   0.000   0.000   0.000   0.000   0.000   0.000   0.000   0.000   0.000
  0.000   0.000   0.000   0.000   0.000   0.000   0.000   0.000   0.000   0.000   0.000   0.000   0.000   0.000   0.000   0.000
  0.000   0.000   0.000   0.000   0.000   0.000   0.000   0.000   0.000   0.000   0.000   0.000   0.000   0.000   0.000   0.000
  0.000   0.000   0.000   0.000   0.000   0.000   0.000   0.000   0.000   0.000   1.000   0.000   0.000   0.000   0.000   0.000
  0.000   0.000   0.000   0.000   0.000   0.000   0.000   0.000   0.000   0.000   0.000   0.000   0.000   0.000   0.000   0.000
  0.000   0.000   0.000   0.000   0.000   0.000   0.000   0.000   0.000   0.000   0.000   0.000   0.000   0.000   0.000   0.000
  0.000   0.000   0.000   0.000   0.000   0.000   0.000   0.000   0.000   0.000   0.000   0.000   0.000   0.000   0.000   0.000
  0.000   0.000   0.000   0.000   0.000   0.000   0.000   0.000   0.000   0.000   0.000   0.000   0.000   0.000   0.000   0.000
  0.000   0.000   0.000   0.000   0.000   0.000   0.000   0.000   0.000   0.000   0.000   0.000   0.000   0.000   0.000   0.000
  0.000   0.000   0.000   0.000   0.000   0.000   0.000   0.000   0.000   0.000   0.000   0.000   0.000   0.000   0.000   0.000
  0.000   0.000   0.000   0.000   0.000   0.000   0.000   0.000   0.000   0.000   0.000   0.000   0.000   0.000   0.000   0.000
 total augmentation occupancy for first ion, spin component:           2
  0.180   0.000   0.000   0.000   0.000   0.000   0.000   0.000   0.000   0.000   0.000   0.000   0.000   0.000   0.000   0.000
  0.000   0.180   0.000   0.000   0.000   0.000   0.000   0.000   0.000   0.000   0.000   0.000   0.000   0.000   0.000   0.000
  0.000   0.000   0.180   0.000   0.000   0.000   0.000   0.000   0.000   0.000   0.000   0.000   0.000   0.000   0.000   0.000
  0.000   0.000   0.000   0.180   0.000   0.000   0.000   0.000   0.000   0.000   0.000   0.000   0.000   0.000   0.000   0.000
  0.000   0.000   0.000   0.000   0.180   0.000   0.000   0.000   0.000   0.000   0.000   0.000   0.000   0.000   0.000   0.000
  0.000   0.000   0.000   0.000   0.000   0.000   0.000   0.000   0.000   0.000   0.000   0.000   0.000   0.000   0.000   0.000
  0.000   0.000   0.000   0.000   0.000   0.000   0.000   0.000   0.000   0.000   0.000   0.000   0.000   0.000   0.000   0.000
  0.000   0.000   0.000   0.000   0.000   0.000   0.000   0.000   0.000   0.000   0.000   0.000   0.000   0.000   0.000   0.000
  0.000   0.000   0.000   0.000   0.000   0.000   0.000   0.000   0.000   0.000   0.000   0.000   0.000   0.000   0.000   0.000
  0.000   0.000   0.000   0.000   0.000   0.000   0.000   0.000   0.000   0.000   0.000   0.000   0.000   0.000   0.000   0.000
  0.000   0.000   0.000   0.000   0.000   0.000   0.000   0.000   0.000   0.000   0.100   0.000   0.000   0.000   0.000   0.000
  0.000   0.000   0.000   0.000   0.000   0.000   0.000   0.000   0.000   0.000   0.000   0.000   0.000   0.000   0.000   0.000
  0.000   0.000   0.000   0.000   0.000   0.000   0.000   0.000   0.000   0.000   0.000   0.000   0.000   0.000   0.000   0.000
  0.000   0.000   0.000   0.000   0.000   0.000   0.000   0.000   0.000   0.000   0.000   0.000   0.000   0.000   0.000   0.000
  0.000   0.000   0.000   0.000   0.000   0.000   0.000   0.000   0.000   0.000   0.000   0.000   0.000   0.000   0.000   0.000
  0.000   0.000   0.000   0.000   0.000   0.000   0.000   0.000   0.000   0.000   0.000   0.000   0.000   0.000   0.000   0.000
  0.000   0.000   0.000   0.000   0.000   0.000   0.000   0.000   0.000   0.000   0.000   0.000   0.000   0.000   0.000   0.000
  0.000   0.000   0.000   0.000   0.000   0.000   0.000   0.000   0.000   0.000   0.000   0.000   0.000   0.000   0.000   0.000


------------------------ aborting loop because EDIFF is reached ----------------------------------------


 


 total charge     
 
# of ion       s       p       d       tot
------------------------------------------
    1        0.511   0.517   8.312   9.341
    2        0.508   0.508   8.308   9.324
    3        0.508   0.508   8.309   9.324
    4        0.514   0.523   8.315   9.352
    5        0.480   0.516   6.208   7.204
    6        0.482   0.516   6.213   7.211
    7        0.479   0.509   6.203   7.190
    8        0.476   0.500   6.201   7.177
    9        0.480   0.509   6.213   7.201
   10        0.484   0.519   6.218   7.221
   11        0.492   0.535   6.239   7.267
   12        0.492   0.538   6.240   7.269
   13        0.482   0.519   6.212   7.213
   14        0.489   0.528   6.231   7.248
   15        0.481   0.513   6.210   7.204
   16        0.493   0.541   6.245   7.279
--------------------------------------------------
tot          7.853   8.299 107.875 124.026
 


 magnetization (x)
 
# of ion       s       p       d       tot
------------------------------------------
    1       -0.030  -0.060   0.728   0.638
    2       -0.030  -0.057   0.731   0.644
    3       -0.030  -0.057   0.730   0.642
    4       -0.030  -0.060   0.724   0.634
    5       -0.014  -0.043   2.583   2.526
    6       -0.013  -0.041   2.573   2.519
    7       -0.011  -0.034   2.602   2.558
    8       -0.007  -0.029   2.611   2.574
    9       -0.008  -0.030   2.582   2.544
   10       -0.013  -0.041   2.556   2.502
   11       -0.015  -0.044   2.500   2.441
   12       -0.017  -0.051   2.499   2.432
   13       -0.014  -0.043   2.570   2.512
   14       -0.015  -0.044   2.525   2.466
   15       -0.011  -0.034   2.585   2.540
   16       -0.017  -0.051   2.488   2.420
--------------------------------------------------
tot         -0.275  -0.721  33.589  32.592
 
    CHARGE:  cpu time    0.9029: real time    0.9041
    FORLOC:  cpu time    0.0040: real time    0.0031
    FORNL :  cpu time    8.3637: real time    8.3959
    STRESS:  cpu time   25.0902: real time   25.1922
    FORCOR:  cpu time    0.0370: real time    0.0373
    FORHAR:  cpu time    0.0070: real time    0.0067
    OFIELD:  cpu time    0.0000: real time    0.0002

  FORCE on cell =-STRESS in cart. coord.  units (eV):
  Direction    XX          YY          ZZ          XY          YZ          ZX
  --------------------------------------------------------------------------------------
  Alpha Z   923.24943   923.24943   923.24943
  Ewald   -3596.63625 -3543.07016 -3559.66465     4.51139    12.93225   -18.02892
  Hartree   690.31495   747.29827   726.73158     3.31843    14.05073   -17.38999
  E(xc)    -698.78977  -698.89329  -698.68223     0.08438    -0.07387    -0.02782
  Local     669.43659   558.54469   597.05411    -7.08897   -26.83301    35.75176
  n-local  -336.55978  -337.51845  -336.62579     0.28990    -0.33980    -0.07793
  augment  1170.49314  1170.77062  1169.70934    -0.66479     0.20717     0.08467
  Kinetic  1184.13281  1183.26937  1182.08226    -0.91923    -0.33068     0.19507
  Fock        0.00000     0.00000     0.00000     0.00000     0.00000     0.00000
  -------------------------------------------------------------------------------------
  Total       5.64111     3.65047     3.85405    -0.46888    -0.38720     0.50685
  in kB      49.45232    32.00154    33.78620    -4.11036    -3.39433     4.44324
  external pressure =       38.41 kB  Pullay stress =        0.00 kB


 VOLUME and BASIS-vectors are now :
 -----------------------------------------------------------------------------
  energy-cutoff  :      520.00
  volume of cell :      182.76
      direct lattice vectors                 reciprocal lattice vectors
     1.787500000  1.787500000 -3.575000000     0.069930070  0.069930070 -0.209790210
     0.000000000 -5.362500000 -1.787500000    -0.017482517 -0.157342657 -0.087412587
    -7.150000000  1.787500000 -1.787500000    -0.122377622  0.017482517 -0.052447552

  length of vectors
     4.378462915  5.652571318  7.583720228     0.231931804  0.180840567  0.134285765


 FORCES acting on ions
    electron-ion (+dipol)            ewald-force                    non-local-force                 convergence-correction
 -----------------------------------------------------------------------------------------------
   0.706E+02 -.474E+01 0.436E+02   -.708E+02 0.468E+01 -.436E+02   0.365E+00 0.112E+00 0.380E+00   0.564E-01 -.968E-04 0.172E-01
   0.626E+02 -.257E+02 -.262E+01   -.628E+02 0.259E+02 0.277E+01   0.325E+00 -.256E+00 -.222E+00   -.462E-02 0.263E-01 0.378E-01
   -.516E+02 0.155E+02 -.187E+01   0.518E+02 -.156E+02 0.182E+01   -.316E+00 0.249E+00 0.218E+00   -.976E-01 0.142E-01 -.691E-01
   -.677E+02 0.171E+02 -.367E+02   0.679E+02 -.172E+02 0.368E+02   -.334E+00 -.104E+00 -.386E+00   -.114E+00 -.940E-02 -.486E-01
   -.397E+02 0.190E+02 -.248E+02   0.400E+02 -.191E+02 0.251E+02   -.734E+00 0.148E+00 -.329E+00   -.471E-01 0.531E-01 0.156E-01
   0.713E+02 -.155E+02 0.186E+02   -.716E+02 0.156E+02 -.186E+02   0.307E+00 0.758E-01 -.105E+00   0.525E-01 0.557E-01 0.518E-01
   0.547E+02 -.214E+01 0.372E+02   -.550E+02 0.207E+01 -.373E+02   0.604E+00 0.118E+00 0.471E+00   0.137E+00 -.746E-01 0.592E-01
   0.161E+02 0.152E+02 0.609E+01   -.161E+02 -.152E+02 -.624E+01   0.327E+00 -.190E+00 -.408E+00   -.148E-01 -.761E-01 0.834E-02
   -.608E+01 -.120E+02 0.179E+01   0.601E+01 0.119E+02 -.169E+01   -.409E+00 0.141E+00 0.362E+00   -.402E-01 0.880E-01 -.277E-01
   -.725E+02 0.232E+02 -.129E+02   0.728E+02 -.234E+02 0.129E+02   -.309E+00 -.995E-01 0.703E-01   -.517E-01 -.508E-01 -.461E-01
   -.574E+02 -.329E+01 -.255E+02   0.576E+02 0.341E+01 0.255E+02   -.436E+00 0.306E-01 0.233E+00   -.123E+00 0.787E-02 -.246E-01
   0.223E+02 -.182E+02 0.116E+02   -.226E+02 0.186E+02 -.115E+02   0.375E+00 0.114E+00 0.243E+00   0.579E-01 0.809E-01 0.601E-01
   0.366E+02 -.145E+02 0.240E+02   -.369E+02 0.146E+02 -.243E+02   0.728E+00 -.188E+00 0.308E+00   0.111E+00 -.592E-01 0.686E-02
   0.478E+02 -.808E+00 0.143E+02   -.480E+02 0.777E+00 -.142E+02   0.511E+00 -.116E-01 -.144E+00   0.156E+00 -.214E-01 0.342E-01
   -.576E+02 -.119E+02 -.390E+02   0.579E+02 0.121E+02 0.392E+02   -.550E+00 0.107E-01 -.474E+00   -.155E+00 0.700E-01 -.749E-01
   -.295E+02 0.187E+02 -.136E+02   0.298E+02 -.191E+02 0.134E+02   -.381E+00 -.126E+00 -.237E+00   0.323E-01 -.975E-01 -.170E-01
 -----------------------------------------------------------------------------------------------
   -.271E-01 -.313E-01 0.372E-01   -.128E-12 0.711E-13 -.444E-13   0.707E-01 0.248E-01 -.200E-01   -.445E-01 0.694E-02 -.169E-01
 
 
 POSITION                                       TOTAL-FORCE (eV/Angst)
 -----------------------------------------------------------------------------------
     -5.37181     -1.80057     -3.57778         0.227325      0.054074      0.332966
     -5.35729      0.00589     -1.79344         0.117608     -0.045550     -0.031930
     -3.56832     -3.58268     -3.57307        -0.218129      0.117888      0.098540
     -3.56891     -1.76402     -1.78217        -0.212910     -0.178147     -0.385607
     -1.78385     -3.55774     -1.79562        -0.546632      0.045946     -0.073749
     -5.36956     -0.02911     -5.35218         0.118272      0.216583     -0.114225
     -5.35580      1.78408     -3.59842         0.426580     -0.018794      0.374619
     -3.57483     -1.76481     -5.32895         0.340284     -0.218753     -0.547689
     -3.55903     -0.01541     -3.59805        -0.515541      0.129141      0.437715
     -1.77587     -1.75390     -3.57595        -0.102187     -0.322120      0.001672
     -1.78994     -0.01456     -1.80821        -0.300887      0.159854      0.241713
      0.01159     -3.62291     -3.58373         0.059821      0.547756      0.366259
     -0.00892     -1.80159     -1.77383         0.544048     -0.131816      0.034774
     -0.01666     -5.35473     -1.79164         0.469411     -0.064104      0.019880
     -1.79745      1.76992     -3.55301        -0.348388      0.292336     -0.372488
     -0.01335      0.05216     -3.56395        -0.058677     -0.584295     -0.382449
 -----------------------------------------------------------------------------------
    total drift:                               -0.000880      0.000467      0.000371


--------------------------------------------------------------------------------------------------------



  FREE ENERGIE OF THE ION-ELECTRON SYSTEM (eV)
  ---------------------------------------------------
  free  energy   TOTEN  =      -119.59114367 eV

  energy  without entropy=     -119.59114367  energy(sigma->0) =     -119.59114367
 


--------------------------------------------------------------------------------------------------------


    POTLOK:  cpu time    0.0450: real time    0.0447


--------------------------------------------------------------------------------------------------------


     LOOP+:  cpu time  306.2864: real time  308.9101
    4ORBIT:  cpu time    0.0000: real time    0.0000
 


 total charge     
 
# of ion       s       p       d       tot
------------------------------------------
    1        0.511   0.517   8.312   9.341
    2        0.508   0.508   8.308   9.324
    3        0.508   0.508   8.309   9.324
    4        0.514   0.523   8.315   9.352
    5        0.480   0.516   6.208   7.204
    6        0.482   0.516   6.213   7.211
    7        0.479   0.509   6.203   7.190
    8        0.476   0.500   6.201   7.177
    9        0.480   0.509   6.213   7.201
   10        0.484   0.519   6.218   7.221
   11        0.492   0.535   6.239   7.267
   12        0.492   0.538   6.240   7.269
   13        0.482   0.519   6.212   7.213
   14        0.489   0.528   6.231   7.248
   15        0.481   0.513   6.210   7.204
   16        0.493   0.541   6.245   7.279
--------------------------------------------------
tot          7.853   8.299 107.875 124.026
 


 magnetization (x)
 
# of ion       s       p       d       tot
------------------------------------------
    1       -0.030  -0.060   0.728   0.638
    2       -0.030  -0.057   0.731   0.644
    3       -0.030  -0.057   0.730   0.642
    4       -0.030  -0.060   0.724   0.634
    5       -0.014  -0.043   2.583   2.526
    6       -0.013  -0.041   2.573   2.519
    7       -0.011  -0.034   2.602   2.558
    8       -0.007  -0.029   2.611   2.574
    9       -0.008  -0.030   2.582   2.544
   10       -0.013  -0.041   2.556   2.502
   11       -0.015  -0.044   2.500   2.441
   12       -0.017  -0.051   2.499   2.432
   13       -0.014  -0.043   2.570   2.512
   14       -0.015  -0.044   2.525   2.466
   15       -0.011  -0.034   2.585   2.540
   16       -0.017  -0.051   2.488   2.420
--------------------------------------------------
tot         -0.275  -0.721  33.589  32.592
 
 BZINTS: Fermi energy:  6.629983;136.000000 electrons
         Band energy: 585.747303;  BLOECHL correction: -0.049382

 total amount of memory used by VASP MPI-rank0   126661. kBytes
=======================================================================

   base      :      30000. kBytes
   nonlr-proj:       4431. kBytes
   fftplans  :       1321. kBytes
   grid      :       3242. kBytes
   one-center:         62. kBytes
   wavefun   :      87605. kBytes
 
  
  
 General timing and accounting informations for this job:
 ========================================================
  
                  Total CPU time used (sec):      329.667
                            User time (sec):      320.805
                          System time (sec):        8.862
                         Elapsed time (sec):      332.606
  
                   Maximum memory used (kb):      186352.
                   Average memory used (kb):           0.
  
                          Minor page faults:        12724
                          Major page faults:            0
                 Voluntary context switches:         1573
