SQS-NiFe                                
           1
     1.787500    1.787500   -3.575000
     0.000000   -5.362500   -1.787500
    -7.150000    1.787500   -1.787500
   Ni   Fe
   4  12
Direct configuration=     1
   0.24901764  0.68996121  0.81355624
   0.00202188  0.24950171  0.74977708
   0.24952567  0.93842373  0.56144748
   0.00094813  0.49573351  0.49938590
   0.00316473  0.74793025  0.25028031
   0.74530531  0.56630224  0.93731399
   0.50514339  0.12746839  0.87534868
   0.74455857  0.80599457  0.68611648
   0.50487419  0.37916087  0.62398554
   0.50336321  0.61959330  0.37421370
   0.25315666  0.19164394  0.31363011
   0.49929223  0.88309835  0.12320165
   0.24552367  0.43867844  0.06262792
   0.00024700  0.99943000  0.00239141
   0.74346172  0.06351826  0.43725691
   0.75039599  0.30356124  0.18946660
