Automatically generated mesh
      20
Reciprocal lattice
    0.00000000000000    0.00000000000000    0.00000000000000             1
    0.25000000000000    0.00000000000000    0.00000000000000             2
    0.50000000000000    0.00000000000000    0.00000000000000             1
    0.00000000000000    0.25000000000000    0.00000000000000             2
    0.25000000000000    0.25000000000000    0.00000000000000             2
    0.50000000000000    0.25000000000000    0.00000000000000             2
   -0.25000000000000    0.25000000000000    0.00000000000000             2
    0.00000000000000    0.50000000000000    0.00000000000000             1
    0.25000000000000    0.50000000000000    0.00000000000000             2
    0.50000000000000    0.50000000000000    0.00000000000000             1
    0.00000000000000    0.00000000000000    0.50000000000000             1
    0.25000000000000    0.00000000000000    0.50000000000000             2
    0.50000000000000    0.00000000000000    0.50000000000000             1
    0.00000000000000    0.25000000000000    0.50000000000000             2
    0.25000000000000    0.25000000000000    0.50000000000000             2
    0.50000000000000    0.25000000000000    0.50000000000000             2
   -0.25000000000000    0.25000000000000    0.50000000000000             2
    0.00000000000000    0.50000000000000    0.50000000000000             1
    0.25000000000000    0.50000000000000    0.50000000000000             2
    0.50000000000000    0.50000000000000    0.50000000000000             1
Tetrahedra
        96    0.00520833333333
         2         2         4         5        14
         2         1         2         4        14
         2         1         2        11        14
         2         2         5        14        15
         2         2        12        14        15
         2         2        11        12        14
         2         3         5         6        15
         2         2         3         5        15
         2         2         3        12        15
         2         3         6        15        16
         2         3        13        15        16
         2         3        12        13        15
         2         2         6         7        16
         2         2         3         6        16
         2         2         3        13        16
         2         2         7        16        17
         2         2        12        16        17
         2         2        12        13        16
         2         1         4         7        17
         2         1         2         7        17
         2         1         2        12        17
         2         1         4        14        17
         2         1        11        14        17
         2         1        11        12        17
         2         5         8         9        18
         2         4         5         8        18
         2         4         5        14        18
         2         5         9        18        19
         2         5        15        18        19
         2         5        14        15        18
         2         6         9        10        19
         2         5         6         9        19
         2         5         6        15        19
         2         6        10        19        20
         2         6        16        19        20
         2         6        15        16        19
         2         7         9        10        20
         2         6         7        10        20
         2         6         7        16        20
         2         7         9        19        20
         2         7        17        19        20
         2         7        16        17        20
         2         4         8         9        19
         2         4         7         9        19
         2         4         7        17        19
         2         4         8        18        19
         2         4        14        18        19
         2         4        14        17        19
         2         4         7         9        14
         2         4         8         9        14
         2         8         9        14        18
         2         7         9        14        17
         2         9        14        17        19
         2         9        14        18        19
         2         6         7        10        17
         2         7         9        10        17
         2         9        10        17        19
         2         6        10        16        17
         2        10        16        17        20
         2        10        17        19        20
         2         5         6         9        16
         2         6         9        10        16
         2         9        10        16        20
         2         5         9        15        16
         2         9        15        16        19
         2         9        16        19        20
         2         4         5         8        15
         2         5         8         9        15
         2         8         9        15        19
         2         4         8        14        15
         2         8        14        15        18
         2         8        15        18        19
         2         1         2         7        11
         2         1         4         7        11
         2         4         7        11        14
         2         2         7        11        12
         2         7        11        12        17
         2         7        11        14        17
         2         2         3         6        12
         2         2         6         7        12
         2         6         7        12        17
         2         3         6        12        13
         2         6        12        13        16
         2         6        12        16        17
         2         2         3         5        13
         2         3         5         6        13
         2         5         6        13        16
         2         2         5        12        13
         2         5        12        13        15
         2         5        13        15        16
         2         1         2         4        12
         2         2         4         5        12
         2         4         5        12        15
         2         1         4        11        12
         2         4        11        12        14
         2         4        12        14        15
