       N       E                     dE             d eps       ncg     rms          rms(c)
DAV:   1     0.532413131959E+04    0.53241E+04   -0.30125E+05 35040   0.174E+03
DAV:   2     0.311524461717E+03   -0.50126E+04   -0.47246E+04 35040   0.387E+02
DAV:   3    -0.294481341298E+03   -0.60601E+03   -0.53436E+03 36729   0.162E+02
DAV:   4    -0.366268979986E+03   -0.71788E+02   -0.63885E+02 41730   0.471E+01
DAV:   5    -0.368782941394E+03   -0.25140E+01   -0.24949E+01 37203   0.854E+00
RMM:   6    -0.368848025313E+03   -0.65084E-01   -0.65059E-01 37607   0.114E+00
RMM:   7    -0.368869474014E+03   -0.21449E-01   -0.22013E-01 54402   0.428E-01
RMM:   8    -0.368869536122E+03   -0.62108E-04   -0.75602E-03 57744   0.662E-02
RMM:   9    -0.368869837121E+03   -0.30100E-03   -0.32929E-03 57272   0.230E-02
RMM:  10    -0.368869836160E+03    0.96188E-06   -0.60424E-04 32048   0.739E-03
RMM:  11    -0.368869845658E+03   -0.94989E-05   -0.20618E-04 23330   0.390E-03
RMM:  12    -0.368869846325E+03   -0.66694E-06   -0.51385E-05 21932   0.215E-03
RMM:  13    -0.368869846073E+03    0.25250E-06   -0.13289E-05 19832   0.130E-03
RMM:  14    -0.368869846270E+03   -0.19750E-06   -0.53725E-06 16725   0.862E-04
   1 F= -.38703932E+03 E0= -.38703932E+03  d E =0.000000E+00  mag=    43.6708
