 vasp.5.4.4.18Apr17-6-g9f103f2a35 (build Dec 15 2018 21:27:11) complex          
  
 executed on             LinuxIFC date 2022.03.12  18:56:33
 running on   72 total cores
 distrk:  each k-point on   72 cores,    1 groups
 distr:  one band on NCORES_PER_BAND=  24 cores,    3 groups


--------------------------------------------------------------------------------------------------------


 INCAR:
 POTCAR:    PAW_PBE Ni 02Aug2007                  
 POTCAR:    PAW_PBE O 08Apr2002                   
 POTCAR:    PAW_PBE H 15Jun2001                   

 ----------------------------------------------------------------------------- 
|                                                                             |
|           W    W    AA    RRRRR   N    N  II  N    N   GGGG   !!!           |
|           W    W   A  A   R    R  NN   N  II  NN   N  G    G  !!!           |
|           W    W  A    A  R    R  N N  N  II  N N  N  G       !!!           |
|           W WW W  AAAAAA  RRRRR   N  N N  II  N  N N  G  GGG   !            |
|           WW  WW  A    A  R   R   N   NN  II  N   NN  G    G                |
|           W    W  A    A  R    R  N    N  II  N    N   GGGG   !!!           |
|                                                                             |
|      For optimal performance we recommend to set                            |
|        NCORE= 4 - approx SQRT( number of cores)                             |
|      NCORE specifies how many cores store one orbital (NPAR=cpu/NCORE).     |
|      This setting can  greatly improve the performance of VASP for DFT.     |
|      The default,   NCORE=1            might be grossly inefficient         |
|      on modern multi-core architectures or massively parallel machines.     |
|      Do your own testing !!!!                                               |
|      Unfortunately you need to use the default for GW and RPA calculations. |
|      (for HF NCORE is supported but not extensively tested yet)             |
|                                                                             |
 ----------------------------------------------------------------------------- 

 POTCAR:    PAW_PBE Ni 02Aug2007                  
   VRHFIN =Ni:                                                                  
   LEXCH  = PE                                                                  
   EATOM  =  1077.6739 eV,   79.2068 Ry                                         
                                                                                
   TITEL  = PAW_PBE Ni 02Aug2007                                                
   LULTRA =        F    use ultrasoft PP ?                                      
   IUNSCR =        1    unscreen: 0-lin 1-nonlin 2-no                           
   RPACOR =    2.000    partial core radius                                     
   POMASS =   58.690; ZVAL   =   10.000    mass and valenz                      
   RCORE  =    2.300    outmost cutoff radius                                   
   RWIGS  =    2.430; RWIGS  =    1.286    wigner-seitz radius (au A)           
   ENMAX  =  269.532; ENMIN  =  202.149 eV                                      
   RCLOC  =    1.201    cutoff for local pot                                    
   LCOR   =        T    correct aug charges                                     
   LPAW   =        T    paw PP                                                  
   EAUG   =  544.565                                                            
   DEXC   =    0.000                                                            
   RMAX   =    2.357    core radius for proj-oper                               
   RAUG   =    1.300    factor for augmentation sphere                          
   RDEP   =    2.390    radius for radial grids                                 
   RDEPT  =    1.838    core radius for aug-charge                              
                                                                                
   Atomic configuration                                                         
    9 entries                                                                   
     n  l   j            E        occ.                                          
     1  0  0.50     -8206.4253   2.0000                                         
     2  0  0.50      -976.1748   2.0000                                         
     2  1  1.50      -839.0571   6.0000                                         
     3  0  0.50      -105.9991   2.0000                                         
     3  1  1.50       -66.4603   6.0000                                         
     3  2  2.50        -4.6458   9.0000                                         
     4  0  0.50        -4.4926   1.0000                                         
     4  1  1.50        -4.0817   0.0000                                         
     4  3  2.50        -1.3606   0.0000                                         
   Description                                                                  
     l       E           TYP  RCUT    TYP  RCUT                                 
     2     -4.6457903     23  2.300                                             
     2     -6.0063729     23  2.300                                             
     0     -4.4925590     23  2.300                                             
     0      5.0102601     23  2.300                                             
     1     -2.7211652     23  2.300                                             
     1     16.5183231     23  2.300                                             
  local pseudopotential read in
  partial core-charges read in
  partial kinetic energy density read in
  atomic valenz-charges read in
  non local Contribution for L=           2  read in
    real space projection operators read in
  non local Contribution for L=           2  read in
    real space projection operators read in
  non local Contribution for L=           0  read in
    real space projection operators read in
  non local Contribution for L=           0  read in
    real space projection operators read in
  non local Contribution for L=           1  read in
    real space projection operators read in
  non local Contribution for L=           1  read in
    real space projection operators read in
    PAW grid and wavefunctions read in
 
   number of l-projection  operators is LMAX  =           6
   number of lm-projection operators is LMMAX =          18
 
 POTCAR:    PAW_PBE O 08Apr2002                   
   VRHFIN =O: s2p4                                                              
   LEXCH  = PE                                                                  
   EATOM  =   432.3788 eV,   31.7789 Ry                                         
                                                                                
   TITEL  = PAW_PBE O 08Apr2002                                                 
   LULTRA =        F    use ultrasoft PP ?                                      
   IUNSCR =        1    unscreen: 0-lin 1-nonlin 2-no                           
   RPACOR =    1.200    partial core radius                                     
   POMASS =   16.000; ZVAL   =    6.000    mass and valenz                      
   RCORE  =    1.520    outmost cutoff radius                                   
   RWIGS  =    1.550; RWIGS  =    0.820    wigner-seitz radius (au A)           
   ENMAX  =  400.000; ENMIN  =  300.000 eV                                      
   ICORE  =        2    local potential                                         
   LCOR   =        T    correct aug charges                                     
   LPAW   =        T    paw PP                                                  
   EAUG   =  605.392                                                            
   DEXC   =    0.000                                                            
   RMAX   =    1.553    core radius for proj-oper                               
   RAUG   =    1.300    factor for augmentation sphere                          
   RDEP   =    1.550    radius for radial grids                                 
   RDEPT  =    1.329    core radius for aug-charge                              
                                                                                
   Atomic configuration                                                         
    4 entries                                                                   
     n  l   j            E        occ.                                          
     1  0  0.50      -514.6923   2.0000                                         
     2  0  0.50       -23.9615   2.0000                                         
     2  1  0.50        -9.0305   4.0000                                         
     3  2  1.50        -9.5241   0.0000                                         
   Description                                                                  
     l       E           TYP  RCUT    TYP  RCUT                                 
     0    -23.9615318     23  1.200                                             
     0     -9.5240782     23  1.200                                             
     1     -9.0304911     23  1.520                                             
     1      8.1634956     23  1.520                                             
     2     -9.5240782      7  1.500                                             
  local pseudopotential read in
  partial core-charges read in
  partial kinetic energy density read in
  kinetic energy density of atom read in
  atomic valenz-charges read in
  non local Contribution for L=           0  read in
    real space projection operators read in
  non local Contribution for L=           0  read in
    real space projection operators read in
  non local Contribution for L=           1  read in
    real space projection operators read in
  non local Contribution for L=           1  read in
    real space projection operators read in
    PAW grid and wavefunctions read in
 
   number of l-projection  operators is LMAX  =           4
   number of lm-projection operators is LMMAX =           8
 
 POTCAR:    PAW_PBE H 15Jun2001                   
   VRHFIN =H: ultrasoft test                                                    
   LEXCH  = PE                                                                  
   EATOM  =    12.4884 eV,    0.9179 Ry                                         
                                                                                
   TITEL  = PAW_PBE H 15Jun2001                                                 
   LULTRA =        F    use ultrasoft PP ?                                      
   IUNSCR =        0    unscreen: 0-lin 1-nonlin 2-no                           
   RPACOR =    0.000    partial core radius                                     
   POMASS =    1.000; ZVAL   =    1.000    mass and valenz                      
   RCORE  =    1.100    outmost cutoff radius                                   
   RWIGS  =    0.700; RWIGS  =    0.370    wigner-seitz radius (au A)           
   ENMAX  =  250.000; ENMIN  =  200.000 eV                                      
   RCLOC  =    0.701    cutoff for local pot                                    
   LCOR   =        T    correct aug charges                                     
   LPAW   =        T    paw PP                                                  
   EAUG   =  400.000                                                            
   RMAX   =    1.123    core radius for proj-oper                               
   RAUG   =    1.200    factor for augmentation sphere                          
   RDEP   =    1.112    radius for radial grids                                 
   RDEPT  =    0.926    core radius for aug-charge                              
                                                                                
   Atomic configuration                                                         
    2 entries                                                                   
     n  l   j            E        occ.                                          
     1  0  0.50        -6.4927   1.0000                                         
     2  1  0.50        -3.4015   0.0000                                         
   Description                                                                  
     l       E           TYP  RCUT    TYP  RCUT                                 
     0     -6.4927494     23  1.100                                             
     0      6.8029130     23  1.100                                             
     1     -4.0817478     23  1.100                                             
  local pseudopotential read in
  atomic valenz-charges read in
  non local Contribution for L=           0  read in
    real space projection operators read in
  non local Contribution for L=           0  read in
    real space projection operators read in
  non local Contribution for L=           1  read in
    real space projection operators read in
    PAW grid and wavefunctions read in
 
   number of l-projection  operators is LMAX  =           3
   number of lm-projection operators is LMMAX =           5
 
 Optimization of the real space projectors (new method)

 maximal supplied QI-value         = 16.25
 optimisation between [QCUT,QGAM] = [ 11.54, 23.24] = [ 37.28,151.24] Ry 
 Optimized for a Real-space Cutoff    1.45 Angstroem

   l    n(q)    QCUT    max X(q) W(low)/X(q) W(high)/X(q)  e(spline) 
   2      9    11.539    60.317    0.19E-03    0.47E-04    0.16E-06
   2      9    11.539    55.921    0.19E-03    0.48E-04    0.16E-06
   0     10    11.539    51.690    0.80E-04    0.50E-04    0.24E-06
   0     10    11.539    30.015    0.73E-04    0.45E-04    0.22E-06
   1     10    11.539    18.849    0.87E-04    0.16E-03    0.71E-07
   1     10    11.539    14.624    0.73E-04    0.13E-03    0.64E-07
 Optimization of the real space projectors (new method)

 maximal supplied QI-value         = 24.76
 optimisation between [QCUT,QGAM] = [ 11.64, 23.27] = [ 37.91,151.63] Ry 
 Optimized for a Real-space Cutoff    1.14 Angstroem

   l    n(q)    QCUT    max X(q) W(low)/X(q) W(high)/X(q)  e(spline) 
   0      8    11.635    20.381    0.10E-03    0.33E-03    0.24E-06
   0      8    11.635    15.268    0.11E-03    0.35E-03    0.26E-06
   1      7    11.635     5.964    0.24E-03    0.31E-03    0.30E-06
   1      7    11.635     5.382    0.22E-03    0.25E-03    0.26E-06
 Optimization of the real space projectors (new method)

 maximal supplied QI-value         = 34.20
 optimisation between [QCUT,QGAM] = [ 11.63, 23.26] = [ 37.87,151.49] Ry 
 Optimized for a Real-space Cutoff    1.21 Angstroem

   l    n(q)    QCUT    max X(q) W(low)/X(q) W(high)/X(q)  e(spline) 
   0      8    11.629    19.460    0.17E-03    0.34E-03    0.21E-06
   0      8    11.629    12.209    0.16E-03    0.33E-03    0.21E-06
   1      8    11.629     4.655    0.18E-03    0.16E-03    0.26E-06
  PAW_PBE Ni 02Aug2007                  :
 energy of atom  1       EATOM=-1077.6739
 kinetic energy error for atom=    0.0030 (will be added to EATOM!!)
  PAW_PBE O 08Apr2002                   :
 energy of atom  2       EATOM= -432.3788
 kinetic energy error for atom=    0.0208 (will be added to EATOM!!)
  PAW_PBE H 15Jun2001                   :
 energy of atom  3       EATOM=  -12.4884
 kinetic energy error for atom=    0.0014 (will be added to EATOM!!)
 
 
 POSCAR: POSCAR                                  
  positions in direct lattice
  velocities in cartesian coordinates
 exchange correlation table for  LEXCH =        8
   RHO(1)=    0.500       N(1)  =     2000
   RHO(2)=  100.500       N(2)  =     4000

 VTST: version 3.2, (02/03/18)

 CHAIN: initializing optimizer
 
 OPT: Using VASP Dynamics algorithm
 CHAIN: Read ICHAIN            0
 
 POSCAR: POSCAR                                  
  positions in direct lattice
  velocities in cartesian coordinates
 


--------------------------------------------------------------------------------------------------------


 ion  position               nearest neighbor table
   1  0.113  0.226  0.095-  15 2.49  19 2.49   3 2.49   5 2.49  13 2.49  17 2.49  21 2.49  49 2.49
                            61 2.49
   2  0.110  0.227  0.382-  65 1.83  14 2.40  18 2.43  20 2.46  62 2.49  22 2.50  24 2.51   6 2.51
                             4 2.52  50 2.57
   3  0.196  0.142  0.191-   4 2.44  24 2.45   8 2.45   5 2.49  49 2.49   1 2.49   7 2.49  15 2.49
                            19 2.49  23 2.49  51 2.49  63 2.49
   4  0.030  0.059  0.285-  62 2.43   3 2.44  63 2.44  15 2.44  24 2.49   8 2.49  16 2.49  64 2.49
                            20 2.49  52 2.50   2 2.52  50 2.53
   5  0.363  0.226  0.095-   3 2.49  23 2.49   7 2.49   9 2.49   1 2.49  21 2.49  25 2.49  49 2.49
                            53 2.49
   6  0.360  0.223  0.386-  65 1.88  69 1.98   2 2.51  50 2.51  54 2.52  22 2.52  26 2.54  28 2.54
                            10 2.54   8 2.55  24 2.55
   7  0.446  0.142  0.191-   8 2.45  12 2.46  28 2.49   9 2.49  53 2.49   5 2.49  11 2.49   3 2.49
                            23 2.49  51 2.49  27 2.49  55 2.49
   8  0.280  0.060  0.286-  54 2.41   3 2.45   7 2.45  51 2.46  24 2.47  28 2.48   4 2.49  52 2.50
                            12 2.50  56 2.51  50 2.51   6 2.55
   9  0.613  0.226  0.095-   7 2.49  27 2.49  11 2.49  13 2.49   5 2.49  25 2.49  29 2.49  53 2.49
                            57 2.49
  10  0.615  0.223  0.386-  68 1.89  69 1.97  14 2.51  58 2.51  54 2.52  30 2.52  32 2.54  28 2.54
                            12 2.54  26 2.54   6 2.54
  11  0.696  0.142  0.191-  16 2.44  12 2.45  32 2.45  13 2.49  57 2.49   9 2.49  15 2.49   7 2.49
                            27 2.49  55 2.49  31 2.49  59 2.49
  12  0.531  0.060  0.286-  54 2.41  11 2.45   7 2.46  55 2.46  32 2.47  28 2.49  16 2.49  60 2.50
                             8 2.50  56 2.51  58 2.52  10 2.54
  13  0.863  0.226  0.095-  11 2.49  31 2.49  15 2.49   9 2.49   1 2.49  29 2.49  17 2.49  57 2.49
                            61 2.49
  14  0.869  0.227  0.382-  68 1.83   2 2.40  18 2.43  20 2.45  62 2.49  30 2.50  10 2.51  32 2.52
                            16 2.52  58 2.57
  15  0.946  0.142  0.191-  16 2.44   4 2.44  20 2.47   1 2.49  61 2.49  13 2.49   3 2.49  11 2.49
                            31 2.49  59 2.49  19 2.49  63 2.49
  16  0.780  0.059  0.285-  62 2.43  15 2.44  59 2.44  11 2.44  32 2.49  12 2.49   4 2.49  64 2.49
                            60 2.50  20 2.50  58 2.52  14 2.52
  17  0.113  0.476  0.095-  31 2.49  35 2.49  19 2.49  21 2.49  29 2.49  13 2.49  33 2.49   1 2.49
                            37 2.49
  18  0.112  0.472  0.382-  67 1.84  14 2.43   2 2.43  20 2.47  30 2.47  22 2.47  40 2.52  36 2.53
                            34 2.54  38 2.54
  19  0.196  0.392  0.191-  40 2.44  20 2.47  24 2.47  21 2.49   1 2.49  17 2.49  31 2.49  23 2.49
                            15 2.49  35 2.49  39 2.49   3 2.49
  20  0.030  0.309  0.286-  14 2.45   2 2.46  19 2.47  15 2.47  18 2.47  31 2.47  40 2.49  36 2.49
                             4 2.49  16 2.50  24 2.50  32 2.50
  21  0.363  0.476  0.095-  19 2.49  39 2.49  23 2.49  25 2.49  17 2.49   5 2.49  37 2.49   1 2.49
                            41 2.49
  22  0.362  0.476  0.377-  40 2.41  44 2.41  24 2.41  18 2.47  38 2.47   2 2.50  42 2.50   6 2.52
                            26 2.52
  23  0.446  0.392  0.191-  24 2.45  44 2.46  25 2.49   5 2.49  21 2.49  27 2.49  19 2.49   3 2.49
                            39 2.49  43 2.49   7 2.49  28 2.50
  24  0.280  0.307  0.286-  22 2.41   3 2.45  23 2.45   8 2.47  19 2.47  28 2.48   4 2.49  20 2.50
                            44 2.50  40 2.51   2 2.51   6 2.55
  25  0.613  0.476  0.095-  23 2.49  43 2.49  27 2.49  29 2.49  21 2.49   9 2.49  41 2.49   5 2.49
                            45 2.49
  26  0.615  0.478  0.386-  66 1.88  69 1.98  42 2.51  46 2.52  30 2.52  22 2.52   6 2.54  28 2.54
                            10 2.54  48 2.55  44 2.55
  27  0.696  0.392  0.191-  48 2.46  32 2.46  28 2.49  29 2.49   9 2.49  25 2.49  23 2.49  31 2.49
                            11 2.49  43 2.49  47 2.49   7 2.49
  28  0.530  0.309  0.288-  44 2.48  24 2.48   8 2.48  48 2.48  12 2.49  32 2.49  27 2.49   7 2.49
                            23 2.50  10 2.54  26 2.54   6 2.54
  29  0.863  0.476  0.095-  27 2.49  47 2.49  31 2.49  25 2.49  17 2.49  13 2.49  33 2.49  45 2.49
                             9 2.49
  30  0.866  0.477  0.376-  36 2.40  32 2.41  48 2.41  18 2.47  34 2.47  46 2.50  14 2.50  10 2.52
                            26 2.52
  31  0.946  0.392  0.191-  36 2.44  32 2.46  20 2.47  17 2.49  13 2.49  29 2.49  27 2.49  19 2.49
                            15 2.49  35 2.49  11 2.49  47 2.49
  32  0.779  0.307  0.286-  30 2.41  11 2.45  27 2.46  31 2.46  12 2.47  28 2.49  16 2.49  20 2.50
                            48 2.50  36 2.51  14 2.52  10 2.54
  33  0.113  0.726  0.095-  47 2.49  51 2.49  35 2.49  37 2.49  45 2.49  29 2.49  49 2.49  17 2.49
                            53 2.49
  34  0.112  0.727  0.382-  67 1.84  46 2.43  50 2.43  52 2.47  54 2.47  30 2.47  56 2.52  36 2.52
                            18 2.54  38 2.54
  35  0.196  0.642  0.191-  36 2.43  56 2.43  40 2.44  37 2.49  17 2.49  33 2.49  47 2.49  39 2.49
                            31 2.49  51 2.49  55 2.49  19 2.49
  36  0.030  0.559  0.284-  30 2.40  35 2.43  31 2.44  47 2.44  52 2.49  20 2.49  56 2.49  40 2.49
                            48 2.51  32 2.51  34 2.52  18 2.53
  37  0.363  0.726  0.095-  35 2.49  55 2.49  39 2.49  41 2.49  33 2.49  21 2.49  53 2.49  17 2.49
                            57 2.49
  38  0.366  0.727  0.382-  67 1.84  58 2.43  42 2.43  60 2.47  54 2.47  22 2.47  40 2.52  56 2.53
                            18 2.54  34 2.54
  39  0.446  0.642  0.191-  40 2.44  60 2.47  44 2.47  41 2.49  21 2.49  37 2.49  35 2.49  43 2.49
                            23 2.49  55 2.49  59 2.49  19 2.49
  40  0.280  0.559  0.284-  22 2.41  39 2.44  19 2.44  35 2.44  20 2.49  60 2.49  56 2.49  36 2.49
                            44 2.51  24 2.51  18 2.52  38 2.52
  41  0.613  0.726  0.095-  39 2.49  59 2.49  43 2.49  45 2.49  37 2.49  25 2.49  57 2.49  21 2.49
                            61 2.49
  42  0.612  0.729  0.382-  66 1.83  58 2.40  38 2.43  60 2.46  62 2.49  22 2.50  44 2.51  26 2.51
                            64 2.52  46 2.57
  43  0.696  0.642  0.191-  64 2.44  44 2.45  48 2.45  45 2.49  25 2.49  41 2.49  39 2.49  47 2.49
                            27 2.49  59 2.49  63 2.49  23 2.49
  44  0.531  0.559  0.286-  22 2.41  43 2.45  23 2.46  48 2.47  39 2.47  28 2.48  64 2.49  60 2.50
                            24 2.50  40 2.51  42 2.51  26 2.55
  45  0.863  0.726  0.095-  43 2.49  63 2.49  47 2.49  41 2.49  33 2.49  29 2.49  49 2.49  61 2.49
                            25 2.49
  46  0.869  0.729  0.382-  66 1.83  50 2.40  34 2.43  52 2.46  62 2.49  30 2.50  48 2.51  26 2.52
                            64 2.53  42 2.57
  47  0.946  0.642  0.191-  36 2.44  48 2.46  52 2.47  33 2.49  29 2.49  45 2.49  43 2.49  35 2.49
                            31 2.49  51 2.49  27 2.49  63 2.49
  48  0.779  0.559  0.286-  30 2.41  43 2.45  27 2.46  47 2.46  44 2.47  28 2.48  64 2.49  52 2.50
                            32 2.50  36 2.51  46 2.51  26 2.55
  49  0.113  0.976  0.095-  63 2.49   3 2.49  51 2.49  61 2.49  53 2.49   1 2.49   5 2.49  33 2.49
                            45 2.49
  50  0.110  0.970  0.382-  65 1.83  46 2.40  34 2.43  52 2.46  62 2.49  54 2.50   8 2.51   6 2.51
                             4 2.53   2 2.57
  51  0.196  0.892  0.191-  56 2.44   8 2.46  52 2.47  53 2.49  33 2.49  49 2.49  55 2.49  63 2.49
                            35 2.49  47 2.49   3 2.49   7 2.49
  52  0.030  0.809  0.286-  46 2.46  50 2.46  51 2.47  47 2.47  34 2.47  63 2.47  56 2.49  36 2.49
                             4 2.50  64 2.50   8 2.50  48 2.50
  53  0.363  0.976  0.095-  51 2.49   7 2.49  55 2.49  49 2.49  57 2.49   5 2.49   9 2.49  33 2.49
                            37 2.49
  54  0.362  0.972  0.376-  56 2.40  12 2.41   8 2.41  38 2.47  34 2.47  50 2.50  58 2.50  10 2.52
                             6 2.52
  55  0.446  0.892  0.191-  56 2.44  12 2.46  60 2.47  57 2.49  37 2.49  53 2.49  59 2.49  51 2.49
                            11 2.49  39 2.49   7 2.49  35 2.49
  56  0.280  0.809  0.284-  54 2.40  35 2.43  55 2.44  51 2.44  52 2.49  60 2.49  36 2.49  40 2.49
                            12 2.51   8 2.51  34 2.52  38 2.53
  57  0.613  0.976  0.095-  55 2.49  11 2.49  59 2.49  53 2.49  61 2.49   9 2.49  13 2.49  37 2.49
                            41 2.49
  58  0.612  0.969  0.382-  68 1.83  42 2.40  38 2.43  60 2.45  62 2.49  54 2.50  10 2.51  12 2.52
                            16 2.52  14 2.57
  59  0.696  0.892  0.191-  16 2.44  64 2.44  60 2.47  61 2.49  41 2.49  57 2.49  63 2.49  55 2.49
                            15 2.49  43 2.49  11 2.49  39 2.49
  60  0.529  0.808  0.286-  58 2.45  42 2.46  39 2.47  59 2.47  38 2.47  55 2.47  40 2.49  56 2.49
                            64 2.49  16 2.50  44 2.50  12 2.50
  61  0.863  0.976  0.095-  59 2.49  15 2.49  63 2.49  49 2.49  57 2.49  13 2.49   1 2.49  41 2.49
                            45 2.49
  62  0.864  0.975  0.377-   4 2.43  64 2.43  16 2.43  58 2.49  14 2.49  50 2.49  46 2.49  42 2.49
                             2 2.49
  63  0.946  0.892  0.191-  64 2.44   4 2.44  52 2.47  49 2.49  45 2.49  61 2.49  51 2.49  59 2.49
                             3 2.49  47 2.49  15 2.49  43 2.49
  64  0.780  0.809  0.285-  62 2.43  43 2.44  63 2.44  59 2.44  44 2.49  48 2.49  16 2.49   4 2.49
                            60 2.49  52 2.50  42 2.52  46 2.53
  65  0.180  0.133  0.437-   2 1.83  50 1.83   6 1.88
  66  0.705  0.658  0.437-  46 1.83  42 1.83  26 1.88
  67  0.197  0.642  0.435-  38 1.84  18 1.84  34 1.84
  68  0.705  0.133  0.436-  14 1.83  58 1.83  10 1.89
  69  0.531  0.308  0.449-  70 0.97  10 1.97  26 1.98   6 1.98
  70  0.533  0.306  0.495-  69 0.97
 

IMPORTANT INFORMATION: All symmetrisations will be switched off!
NOSYMM: (Re-)initialisation of all symmetry stuff for point group C_1.

 
 

Automatic generation of k-mesh.
 generate k-points for:    4    4    2
Space group operators:
 irot       det(A)        alpha          n_x          n_y          n_z        tau_x        tau_y        tau_z
    1     1.000000     0.000000     1.000000     0.000000     0.000000     0.000000     0.000000     0.000000
 
 Subroutine IBZKPT returns following result:
 ===========================================
 
 Found     20 irreducible k-points:
 
 Following reciprocal coordinates:
            Coordinates               Weight
  0.000000  0.000000  0.000000      1.000000
  0.250000  0.000000  0.000000      2.000000
  0.500000  0.000000  0.000000      1.000000
  0.000000  0.250000  0.000000      2.000000
  0.250000  0.250000  0.000000      2.000000
  0.500000  0.250000  0.000000      2.000000
 -0.250000  0.250000  0.000000      2.000000
  0.000000  0.500000  0.000000      1.000000
  0.250000  0.500000  0.000000      2.000000
  0.500000  0.500000  0.000000      1.000000
  0.000000  0.000000  0.500000      1.000000
  0.250000  0.000000  0.500000      2.000000
  0.500000  0.000000  0.500000      1.000000
  0.000000  0.250000  0.500000      2.000000
  0.250000  0.250000  0.500000      2.000000
  0.500000  0.250000  0.500000      2.000000
 -0.250000  0.250000  0.500000      2.000000
  0.000000  0.500000  0.500000      1.000000
  0.250000  0.500000  0.500000      2.000000
  0.500000  0.500000  0.500000      1.000000
 
 Following cartesian coordinates:
            Coordinates               Weight
  0.000000  0.000000  0.000000      1.000000
  0.025082  0.014481  0.000000      2.000000
  0.050164  0.028962  0.000000      1.000000
  0.000000  0.028962  0.000000      2.000000
  0.025082  0.043443  0.000000      2.000000
  0.050164  0.057924  0.000000      2.000000
 -0.025082  0.014481  0.000000      2.000000
  0.000000  0.057924  0.000000      1.000000
  0.025082  0.072405  0.000000      2.000000
  0.050164  0.086886  0.000000      1.000000
  0.000000  0.000000  0.023692      1.000000
  0.025082  0.014481  0.023692      2.000000
  0.050164  0.028962  0.023692      1.000000
  0.000000  0.028962  0.023692      2.000000
  0.025082  0.043443  0.023692      2.000000
  0.050164  0.057924  0.023692      2.000000
 -0.025082  0.014481  0.023692      2.000000
  0.000000  0.057924  0.023692      1.000000
  0.025082  0.072405  0.023692      2.000000
  0.050164  0.086886  0.023692      1.000000
 
 TETIRR: Found     96 inequivalent tetrahedra from      192


--------------------------------------------------------------------------------------------------------




 Dimension of arrays:
   k-points           NKPTS =     20   k-points in BZ     NKDIM =     20   number of bands    NBANDS=    438
   number of dos      NEDOS =    301   number of ions     NIONS =     70
   non local maximal  LDIM  =      6   non local SUM 2l+1 LMDIM =     18
   total plane-waves  NPLWV = ******
   max r-space proj   IRMAX =   7188   max aug-charges    IRDMAX=  18478
   dimension x,y,z NGX =    80 NGY =   80 NGZ =  160
   dimension x,y,z NGXF=   160 NGYF=  160 NGZF=  320
   support grid    NGXF=   160 NGYF=  160 NGZF=  320
   ions per type =              64   5   1
   NGX,Y,Z   is equivalent  to a cutoff of  13.34, 13.34, 12.60 a.u.
   NGXF,Y,Z  is equivalent  to a cutoff of  26.69, 26.69, 25.21 a.u.

 SYSTEM =  SQS-NiFe                                
 POSCAR =  POSCAR                                  

 Startparameter for this run:
   NWRITE =      2    write-flag & timer
   PREC   = accura    normal or accurate (medium, high low for compatibility)
   ISTART =      0    job   : 0-new  1-cont  2-samecut
   ICHARG =     11    charge: 1-file 2-atom 10-const
   ISPIN  =      2    spin polarized calculation?
   LNONCOLLINEAR =      F non collinear calculations
   LSORBIT =      F    spin-orbit coupling
   INIWAV =      1    electr: 0-lowe 1-rand  2-diag
   LASPH  =      F    aspherical Exc in radial PAW
   METAGGA=      F    non-selfconsistent MetaGGA calc.

 Electronic Relaxation 1
   ENCUT  =  520.0 eV  38.22 Ry    6.18 a.u.  18.53 18.53 39.24*2*pi/ulx,y,z
   ENINI  =  520.0     initial cutoff
   ENAUG  =  605.4 eV  augmentation charge cutoff
   NELM   =    200;   NELMIN=  2; NELMDL=  0     # of ELM steps 
   EDIFF  = 0.1E-05   stopping-criterion for ELM
   LREAL  =      T    real-space projection
   NLSPLINE    = F    spline interpolate recip. space projectors
   LCOMPAT=      F    compatible to vasp.4.4
   GGA_COMPAT  = T    GGA compatible to vasp.4.4-vasp.4.6
   LMAXPAW     = -100 max onsite density
   LMAXMIX     =    2 max onsite mixed and CHGCAR
   VOSKOWN=      0    Vosko Wilk Nusair interpolation
   ROPT   =   -0.00025  -0.00025  -0.00025
 Ionic relaxation
   EDIFFG = -.2E-01   stopping-criterion for IOM
   NSW    =      0    number of steps for IOM
   NBLOCK =      1;   KBLOCK =      1    inner block; outer block 
   IBRION =     -1    ionic relax: 0-MD 1-quasi-New 2-CG
   NFREE  =      0    steps in history (QN), initial steepest desc. (CG)
   ISIF   =      2    stress and relaxation
   IWAVPR =     10    prediction:  0-non 1-charg 2-wave 3-comb
   ISYM   =      0    0-nonsym 1-usesym 2-fastsym
   LCORR  =      T    Harris-Foulkes like correction to forces

   POTIM  = 0.5000    time-step for ionic-motion
   TEIN   =    0.0    initial temperature
   TEBEG  =    0.0;   TEEND  =   0.0 temperature during run
   SMASS  =  -3.00    Nose mass-parameter (am)
   estimated Nose-frequenzy (Omega)   =  0.10E-29 period in steps =****** mass=  -0.227E-26a.u.
   SCALEE = 1.0000    scale energy and forces
   NPACO  =    256;   APACO  = 16.0  distance and # of slots for P.C.
   PSTRESS=    0.0 pullay stress

  Mass of Ions in am
   POMASS =  58.69 16.00  1.00
  Ionic Valenz
   ZVAL   =  10.00  6.00  1.00
  Atomic Wigner-Seitz radii
   RWIGS  =  -1.00 -1.00 -1.00
  virtual crystal weights 
   VCA    =   1.00  1.00  1.00
   NELECT =     671.0000    total number of electrons
   NUPDOWN=      -1.0000    fix difference up-down

 DOS related values:
   EMIN   =  10.00;   EMAX   =-10.00  energy-range for DOS
   EFERMI =   0.00
   ISMEAR =    -5;   SIGMA  =   0.20  broadening in eV -4-tet -1-fermi 0-gaus

 Electronic relaxation 2 (details)
   IALGO  =     68    algorithm
   LDIAG  =      T    sub-space diagonalisation (order eigenvalues)
   LSUBROT=      F    optimize rotation matrix (better conditioning)
   TURBO    =      0    0=normal 1=particle mesh
   IRESTART =      0    0=no restart 2=restart with 2 vectors
   NREBOOT  =      0    no. of reboots
   NMIN     =      0    reboot dimension
   EREF     =   0.00    reference energy to select bands
   IMIX   =      4    mixing-type and parameters
     AMIX     =   0.40;   BMIX     =  1.00
     AMIX_MAG =   1.60;   BMIX_MAG =  1.00
     AMIN     =   0.10
     WC   =   100.;   INIMIX=   1;  MIXPRE=   1;  MAXMIX= -45

 Intra band minimization:
   WEIMIN = 0.0000     energy-eigenvalue tresh-hold
   EBREAK =  0.57E-09  absolut break condition
   DEPER  =   0.30     relativ break condition  

   TIME   =   0.40     timestep for ELM

  volume/ion in A,a.u.               =      25.94       175.05
  Fermi-wavevector in a.u.,A,eV,Ry     =   1.174803  2.220055 18.778233  1.380161
  Thomas-Fermi vector in A             =   2.311194
 
 Write flags
   LWAVE        =      F    write WAVECAR
   LDOWNSAMPLE  =      F    k-point downsampling of WAVECAR
   LCHARG       =      F    write CHGCAR
   LVTOT        =      F    write LOCPOT, total local potential
   LVHAR        =      F    write LOCPOT, Hartree potential only
   LELF         =      F    write electronic localiz. function (ELF)
   LORBIT       =     11    0 simple, 1 ext, 2 COOP (PROOUT), +10 PAW based schemes


 Dipole corrections
   LMONO  =      F    monopole corrections only (constant potential shift)
   LDIPOL =      T    correct potential (dipole corrections)
   IDIPOL =      3    1-x, 2-y, 3-z, 4-all directions 
   EPSILON=  1.0000000 bulk dielectric constant

 Exchange correlation treatment:
   GGA     =    --    GGA type
   LEXCH   =     8    internal setting for exchange type
   VOSKOWN=      0    Vosko Wilk Nusair interpolation
   LHFCALC =     F    Hartree Fock is set to
   LHFONE  =     F    Hartree Fock one center treatment
   AEXX    =    0.0000 exact exchange contribution

 Linear response parameters
   LEPSILON=     F    determine dielectric tensor
   LRPA    =     F    only Hartree local field effects (RPA)
   LNABLA  =     F    use nabla operator in PAW spheres
   LVEL    =     F    velocity operator in full k-point grid
   LINTERFAST=   F  fast interpolation
   KINTER  =     0    interpolate to denser k-point grid
   CSHIFT  =0.1000    complex shift for real part using Kramers Kronig
   OMEGAMAX=  -1.0    maximum frequency
   DEG_THRESHOLD= 0.2000000E-02 threshold for treating states as degnerate
   RTIME   =   -0.100 relaxation time in fs
  (WPLASMAI=    0.000 imaginary part of plasma frequency in eV, 0.658/RTIME)
   DFIELD  = 0.0000000 0.0000000 0.0000000 field for delta impulse in time
 
 Orbital magnetization related:
   ORBITALMAG=     F  switch on orbital magnetization
   LCHIMAG   =     F  perturbation theory with respect to B field
   DQ        =  0.001000  dq finite difference perturbation B field
   LLRAUG    =     F  two centre corrections for induced B field



--------------------------------------------------------------------------------------------------------


 Static calculation
 charge density and potential remain constant during run
 spin polarized calculation
 RMM-DIIS sequential band-by-band and
  variant of blocked Davidson during initial phase
 perform sub-space diagonalisation
    before iterative eigenvector-optimisation
 no mixing
 using additional bands          102
 real space projection scheme for non local part
 use partial core corrections
 calculate Harris-corrections to forces 
   (improved forces if not selfconsistent)
 use gradient corrections 
 WARNING: stress and forces are not correct
  (second derivative of E(xc) not defined)
 use of overlap-Matrix (Vanderbilt PP)
 Fermi weights with tetrahedron method with Bloechl corrections


--------------------------------------------------------------------------------------------------------


  energy-cutoff  :      520.00
  volume of cell :     1815.73
      direct lattice vectors                 reciprocal lattice vectors
     9.967380000  0.000000000  0.000000000     0.100327268  0.057923975  0.000000000
    -4.983690000  8.632004290  0.000000000     0.000000000  0.115847950  0.000000000
     0.000000000  0.000000000 21.103750000     0.000000000  0.000000000  0.047384943

  length of vectors
     9.967380000  9.967380001 21.103750000     0.115847950  0.115847950  0.047384943


 
 k-points in units of 2pi/SCALE and weight: read from INCAR                         
   0.00000000  0.00000000  0.00000000       0.031
   0.02508182  0.01448099  0.00000000       0.062
   0.05016363  0.02896199  0.00000000       0.031
   0.00000000  0.02896199  0.00000000       0.062
   0.02508182  0.04344298  0.00000000       0.062
   0.05016363  0.05792397  0.00000000       0.062
  -0.02508182  0.01448099  0.00000000       0.062
   0.00000000  0.05792397  0.00000000       0.031
   0.02508182  0.07240497  0.00000000       0.062
   0.05016363  0.08688596  0.00000000       0.031
   0.00000000  0.00000000  0.02369247       0.031
   0.02508182  0.01448099  0.02369247       0.062
   0.05016363  0.02896199  0.02369247       0.031
   0.00000000  0.02896199  0.02369247       0.062
   0.02508182  0.04344298  0.02369247       0.062
   0.05016363  0.05792397  0.02369247       0.062
  -0.02508182  0.01448099  0.02369247       0.062
   0.00000000  0.05792397  0.02369247       0.031
   0.02508182  0.07240497  0.02369247       0.062
   0.05016363  0.08688596  0.02369247       0.031
 
 k-points in reciprocal lattice and weights: read from INCAR                         
   0.00000000  0.00000000  0.00000000       0.031
   0.25000000  0.00000000  0.00000000       0.062
   0.50000000  0.00000000  0.00000000       0.031
   0.00000000  0.25000000  0.00000000       0.062
   0.25000000  0.25000000  0.00000000       0.062
   0.50000000  0.25000000  0.00000000       0.062
  -0.25000000  0.25000000  0.00000000       0.062
   0.00000000  0.50000000  0.00000000       0.031
   0.25000000  0.50000000  0.00000000       0.062
   0.50000000  0.50000000  0.00000000       0.031
   0.00000000  0.00000000  0.50000000       0.031
   0.25000000  0.00000000  0.50000000       0.062
   0.50000000  0.00000000  0.50000000       0.031
   0.00000000  0.25000000  0.50000000       0.062
   0.25000000  0.25000000  0.50000000       0.062
   0.50000000  0.25000000  0.50000000       0.062
  -0.25000000  0.25000000  0.50000000       0.062
   0.00000000  0.50000000  0.50000000       0.031
   0.25000000  0.50000000  0.50000000       0.062
   0.50000000  0.50000000  0.50000000       0.031
 
 position of ions in fractional coordinates (direct lattice) 
   0.11283300  0.22566700  0.09477000
   0.11009316  0.22714561  0.38214975
   0.19616700  0.14233300  0.19117800
   0.02989793  0.05875870  0.28460199
   0.36283300  0.22566700  0.09477000
   0.36035549  0.22346557  0.38606345
   0.44616700  0.14233300  0.19117800
   0.27997646  0.06007819  0.28557232
   0.61283300  0.22566700  0.09477000
   0.61530184  0.22333937  0.38565353
   0.69616700  0.14233300  0.19117800
   0.53110148  0.06003075  0.28550629
   0.86283300  0.22566700  0.09477000
   0.86921584  0.22715517  0.38212556
   0.94616700  0.14233300  0.19117800
   0.77983113  0.05874895  0.28460633
   0.11283300  0.47566700  0.09477000
   0.11208098  0.47220616  0.38236600
   0.19616700  0.39233300  0.19117800
   0.03011124  0.30913361  0.28621738
   0.36283300  0.47566700  0.09477000
   0.36215410  0.47648836  0.37651238
   0.44616700  0.39233300  0.19117800
   0.28000301  0.30745961  0.28557511
   0.61283300  0.47566700  0.09477000
   0.61517376  0.47827263  0.38604411
   0.69616700  0.39233300  0.19117800
   0.52984948  0.30872368  0.28762925
   0.86283300  0.47566700  0.09477000
   0.86633686  0.47650422  0.37645752
   0.94616700  0.39233300  0.19117800
   0.77855209  0.30747660  0.28550780
   0.11283300  0.72566700  0.09477000
   0.11207548  0.72658247  0.38234532
   0.19616700  0.64233300  0.19117800
   0.02992341  0.55877337  0.28436491
   0.36283300  0.72566700  0.09477000
   0.36649891  0.72659989  0.38235556
   0.44616700  0.64233300  0.19117800
   0.27982676  0.55875105  0.28439245
   0.61283300  0.72566700  0.09477000
   0.61151024  0.72856170  0.38214039
   0.69616700  0.64233300  0.19117800
   0.53111082  0.55856832  0.28557327
   0.86283300  0.72566700  0.09477000
   0.86914601  0.72867142  0.38215135
   0.94616700  0.64233300  0.19117800
   0.77850751  0.55860190  0.28557256
   0.11283300  0.97566700  0.09477000
   0.10997706  0.96950969  0.38215343
   0.19616700  0.89233300  0.19117800
   0.03005621  0.80852874  0.28622146
   0.36283300  0.97566700  0.09477000
   0.36214402  0.97231801  0.37645590
   0.44616700  0.89233300  0.19117800
   0.27980405  0.80865248  0.28436388
   0.61283300  0.97566700  0.09477000
   0.61150099  0.96942079  0.38211845
   0.69616700  0.89233300  0.19117800
   0.52945862  0.80847558  0.28621569
   0.86283300  0.97566700  0.09477000
   0.86352418  0.97511802  0.37747844
   0.94616700  0.89233300  0.19117800
   0.77982000  0.80867685  0.28460191
   0.18029820  0.13345359  0.43653520
   0.70519724  0.65831624  0.43653629
   0.19695046  0.64179678  0.43539207
   0.70527090  0.13341652  0.43646511
   0.53108504  0.30767926  0.44860065
   0.53349925  0.30574264  0.49474615
 
 position of ions in cartesian coordinates  (Angst):
  -0.00000498  1.94795851  2.00000239
  -0.03468294  1.96072184  8.06479281
   1.24592748  1.22861907  4.03457272
   0.00516889  0.50720534  6.00616934
   2.49184002  1.94795851  2.00000239
   2.47811692  1.92895578  8.14738655
   3.73777248  1.22861907  4.03457272
   2.49122071  0.51859519  6.02664677
   4.98368502  1.94795851  2.00000239
   5.01989304  1.92786639  8.13873560
   6.22961748  1.22861907  4.03457272
   4.99451559  0.51818569  6.02525344
   7.47553002  1.94795851  2.00000239
   7.53173368  1.96080436  8.06428226
   8.72146248  1.22861907  4.03457272
   7.48008668  0.50712118  6.00626086
  -1.24592748  4.10595958  2.00000239
  -1.23617540  4.07608561  8.06935650
   0.00000498  3.38662014  4.03457272
  -1.24049595  2.66844268  6.04025997
   1.24591752  4.10595958  2.00000239
   1.23505730  4.11304954  7.94582317
   2.49184998  3.38662014  4.03457272
   1.25861301  2.65399268  6.02670581
   3.73776252  4.10595958  2.00000239
   3.74810815  4.12845136  8.14697846
   4.98369498  3.38662014  4.03457272
   3.74262800  2.66490410  6.07005587
   6.22960752  4.10595958  2.00000239
   6.26035936  4.11318645  7.94466547
   7.47553998  3.38662014  4.03457272
   6.22775651  2.65413930  6.02528527
  -2.49184998  6.26396066  2.00000239
  -2.50396284  6.27186298  8.06891997
  -1.24591752  5.54462121  4.03457272
  -2.48649525  4.82333415  6.00116597
  -0.00000498  6.26396066  2.00000239
   0.03188530  6.27201339  8.06913610
   1.24592748  5.54462121  4.03457272
   0.00449759  4.82314147  6.00174711
   2.49184002  6.26396066  2.00000239
   2.46422932  6.28894770  8.06459520
   3.73777248  5.54462121  4.03457272
   2.51005208  4.82156410  6.02666689
   4.98368502  6.26396066  2.00000239
   5.03163606  6.28989481  8.06482664
   6.22961748  5.54462121  4.03457272
   4.97578145  4.82185403  6.02665194
  -3.73777248  8.42196173  2.00000239
  -3.73555265  8.36881182  8.06487038
  -2.49184002  7.70262228  4.03457272
  -3.72987493  6.97922356  6.04034604
  -1.24592748  8.42196173  2.00000239
  -1.23610449  8.39305327  7.94463128
   0.00000498  7.70262228  4.03457272
  -1.24115997  6.98029170  6.00114433
   1.24591752  8.42196173  2.00000239
   1.26377007  8.36804440  8.06413231
   2.49184998  7.70262228  4.03457272
   1.24812358  6.97876469  6.04022436
   3.73776252  8.42196173  2.00000239
   3.74738770  8.41722291  7.96621061
   4.98369498  7.70262228  4.03457272
   3.74256753  6.98050205  6.00616753
   1.13200931  1.15197195  9.21252982
   3.74812481  5.68258864  9.21255276
  -1.23543608  5.53999255  9.18840537
   6.36479651  1.15165194  9.21105054
   3.76014834  2.65588865  9.46715605
   3.79386321  2.63917175 10.44099900
 


--------------------------------------------------------------------------------------------------------


 k-point  1 :   0.0000 0.0000 0.0000  plane waves:   48949
 k-point  2 :   0.2500 0.0000 0.0000  plane waves:   48934
 k-point  3 :   0.5000 0.0000 0.0000  plane waves:   48846
 k-point  4 :   0.0000 0.2500 0.0000  plane waves:   48934
 k-point  5 :   0.2500 0.2500 0.0000  plane waves:   48825
 k-point  6 :   0.5000 0.2500 0.0000  plane waves:   48825
 k-point  7 :  -0.2500 0.2500 0.0000  plane waves:   48934
 k-point  8 :   0.0000 0.5000 0.0000  plane waves:   48846
 k-point  9 :   0.2500 0.5000 0.0000  plane waves:   48825
 k-point 10 :   0.5000 0.5000 0.0000  plane waves:   48846
 k-point 11 :   0.0000 0.0000 0.5000  plane waves:   48954
 k-point 12 :   0.2500 0.0000 0.5000  plane waves:   48916
 k-point 13 :   0.5000 0.0000 0.5000  plane waves:   48860
 k-point 14 :   0.0000 0.2500 0.5000  plane waves:   48916
 k-point 15 :   0.2500 0.2500 0.5000  plane waves:   48882
 k-point 16 :   0.5000 0.2500 0.5000  plane waves:   48882
 k-point 17 :  -0.2500 0.2500 0.5000  plane waves:   48916
 k-point 18 :   0.0000 0.5000 0.5000  plane waves:   48860
 k-point 19 :   0.2500 0.5000 0.5000  plane waves:   48882
 k-point 20 :   0.5000 0.5000 0.5000  plane waves:   48860

 maximum and minimum number of plane-waves per node :      2064     1992

 maximum number of plane-waves:     48954
 maximum index in each direction: 
   IXMAX=   18   IYMAX=   18   IZMAX=   39
   IXMIN=  -19   IYMIN=  -19   IZMIN=  -39


 real space projection operators:
  total allocation   :      63455.93 KBytes
  max/ min on nodes  :       3214.06       2337.58


 parallel 3D FFT for wavefunctions:
    minimum data exchange during FFTs selected (reduces bandwidth)
 parallel 3D FFT for charge:
    minimum data exchange during FFTs selected (reduces bandwidth)


 total amount of memory used by VASP MPI-rank0   263736. kBytes
=======================================================================

   base      :      30000. kBytes
   nonlr-proj:      12485. kBytes
   fftplans  :       6402. kBytes
   grid      :      17692. kBytes
   one-center:         93. kBytes
   wavefun   :     197064. kBytes
 
     INWAV:  cpu time    0.0001: real time    0.0007
 initial charge density was supplied:
 number of electron     671.0000064 magnetization      43.6707517
 keeping initial charge density in first step


--------------------------------------------------------------------------------------------------------


 Maximum index for non-local projection operator          709
 Maximum index for augmentation-charges         1178 (set IRDMAX)


--------------------------------------------------------------------------------------------------------


 First call to EWALD:  gamma=   0.145
 Maximum number of real-space cells 4x 4x 2
 Maximum number of reciprocal cells 2x 2x 4

    FEWALD:  cpu time    0.0039: real time    0.0039


--------------------------------------- Iteration      1(   1)  ---------------------------------------


    POTLOK:  cpu time    0.4098: real time    0.4898
    SETDIJ:  cpu time    0.0263: real time    0.0529
     EDDAV:  cpu time  166.4564: real time  166.6958
 BZINTS: Fermi energy: 13.230244;671.000000 electrons
         Band energy:4414.499034;  BLOECHL correction: -0.038061
       DOS:  cpu time    0.2626: real time    0.2639
    --------------------------------------------
      LOOP:  cpu time  167.1551: real time  167.5024

 eigenvalue-minimisations  : 35040
 total energy-change (2. order) : 0.5324131E+04  (-0.3012490E+05)
 number of electron     671.0000064 magnetization      43.6707517
 augmentation part      671.0000064 magnetization      43.6707517

 DIPCOR: dipole corrections for dipol
 direction  3 min pos   246,
 dipolmoment           0.000000      0.000000      0.117906 electrons x Angstroem
 Tr[quadrupol]    -11038.275040

 energy correction for charged system         0.000000 eV
 dipol+quadrupol energy correction           -0.000693 eV
 added-field ion interaction          3.004550 eV  (added to PSCEN)


 Free energy of the ion-electron system (eV)
  ---------------------------------------------------
  alpha Z        PSCENC =      1252.88477288
  Ewald energy   TEWEN  =    248445.36182444
  -Hartree energ DENC   =   -317638.02716124
  -exchange      EXHF   =         0.00000000
  -V(xc)+E(xc)   XCENC  =      2102.02698285
  PAW double counting   =     74896.71591351   -79294.54579213
  entropy T*S    EENTRO =         0.00000000
  eigenvalues    EBANDS =      4414.49903403
  atomic energy  EATOM  =     71145.21574525
  Solvation  Ediel_sol  =         0.00000000
  ---------------------------------------------------
  free energy    TOTEN  =      5324.13131959 eV

  energy without entropy =     5324.13131959  energy(sigma->0) =     5324.13131959


--------------------------------------------------------------------------------------------------------




--------------------------------------- Iteration      1(   2)  ---------------------------------------


     EDDAV:  cpu time  167.2628: real time  167.3181
 BZINTS: Fermi energy:  2.475133;671.000000 electrons
         Band energy:-598.107824;  BLOECHL correction: -0.022388
       DOS:  cpu time    0.2496: real time    0.2496
    --------------------------------------------
      LOOP:  cpu time  167.5124: real time  167.5677

 eigenvalue-minimisations  : 35040
 total energy-change (2. order) :-0.5012607E+04  (-0.4724615E+04)
 number of electron     671.0000064 magnetization      43.6707517
 augmentation part      671.0000064 magnetization      43.6707517

 DIPCOR: dipole corrections for dipol
 direction  3 min pos   246,
 dipolmoment           0.000000      0.000000      0.117906 electrons x Angstroem
 Tr[quadrupol]    -11038.275040

 energy correction for charged system         0.000000 eV
 dipol+quadrupol energy correction           -0.000693 eV
 added-field ion interaction          3.004550 eV  (added to PSCEN)


 Free energy of the ion-electron system (eV)
  ---------------------------------------------------
  alpha Z        PSCENC =      1252.88477288
  Ewald energy   TEWEN  =    248445.36182444
  -Hartree energ DENC   =   -317638.02716124
  -exchange      EXHF   =         0.00000000
  -V(xc)+E(xc)   XCENC  =      2102.02698285
  PAW double counting   =     74896.71591351   -79294.54579213
  entropy T*S    EENTRO =         0.00000000
  eigenvalues    EBANDS =      -598.10782384
  atomic energy  EATOM  =     71145.21574525
  Solvation  Ediel_sol  =         0.00000000
  ---------------------------------------------------
  free energy    TOTEN  =       311.52446172 eV

  energy without entropy =      311.52446172  energy(sigma->0) =      311.52446172


--------------------------------------------------------------------------------------------------------




--------------------------------------- Iteration      1(   3)  ---------------------------------------


     EDDAV:  cpu time  174.5410: real time  174.9446
 BZINTS: Fermi energy:  0.752764;671.000000 electrons
         Band energy:***********;  BLOECHL correction: -0.027331
       DOS:  cpu time    0.2581: real time    0.2582
    --------------------------------------------
      LOOP:  cpu time  174.7992: real time  175.2027

 eigenvalue-minimisations  : 36729
 total energy-change (2. order) :-0.6060058E+03  (-0.5343605E+03)
 number of electron     671.0000064 magnetization      43.6707517
 augmentation part      671.0000064 magnetization      43.6707517

 DIPCOR: dipole corrections for dipol
 direction  3 min pos   246,
 dipolmoment           0.000000      0.000000      0.117906 electrons x Angstroem
 Tr[quadrupol]    -11038.275040

 energy correction for charged system         0.000000 eV
 dipol+quadrupol energy correction           -0.000693 eV
 added-field ion interaction          3.004550 eV  (added to PSCEN)


 Free energy of the ion-electron system (eV)
  ---------------------------------------------------
  alpha Z        PSCENC =      1252.88477288
  Ewald energy   TEWEN  =    248445.36182444
  -Hartree energ DENC   =   -317638.02716124
  -exchange      EXHF   =         0.00000000
  -V(xc)+E(xc)   XCENC  =      2102.02698285
  PAW double counting   =     74896.71591351   -79294.54579213
  entropy T*S    EENTRO =         0.00000000
  eigenvalues    EBANDS =     -1204.11362686
  atomic energy  EATOM  =     71145.21574525
  Solvation  Ediel_sol  =         0.00000000
  ---------------------------------------------------
  free energy    TOTEN  =      -294.48134130 eV

  energy without entropy =     -294.48134130  energy(sigma->0) =     -294.48134130


--------------------------------------------------------------------------------------------------------




--------------------------------------- Iteration      1(   4)  ---------------------------------------


     EDDAV:  cpu time  191.2984: real time  191.3851
 BZINTS: Fermi energy:  0.655219;671.000000 electrons
         Band energy:***********;  BLOECHL correction: -0.039237
       DOS:  cpu time    0.2102: real time    0.2145
    --------------------------------------------
      LOOP:  cpu time  191.5086: real time  191.5996

 eigenvalue-minimisations  : 41730
 total energy-change (2. order) :-0.7178764E+02  (-0.6388465E+02)
 number of electron     671.0000064 magnetization      43.6707517
 augmentation part      671.0000064 magnetization      43.6707517

 DIPCOR: dipole corrections for dipol
 direction  3 min pos   246,
 dipolmoment           0.000000      0.000000      0.117906 electrons x Angstroem
 Tr[quadrupol]    -11038.275040

 energy correction for charged system         0.000000 eV
 dipol+quadrupol energy correction           -0.000693 eV
 added-field ion interaction          3.004550 eV  (added to PSCEN)


 Free energy of the ion-electron system (eV)
  ---------------------------------------------------
  alpha Z        PSCENC =      1252.88477288
  Ewald energy   TEWEN  =    248445.36182444
  -Hartree energ DENC   =   -317638.02716124
  -exchange      EXHF   =         0.00000000
  -V(xc)+E(xc)   XCENC  =      2102.02698285
  PAW double counting   =     74896.71591351   -79294.54579213
  entropy T*S    EENTRO =         0.00000000
  eigenvalues    EBANDS =     -1275.90126555
  atomic energy  EATOM  =     71145.21574525
  Solvation  Ediel_sol  =         0.00000000
  ---------------------------------------------------
  free energy    TOTEN  =      -366.26897999 eV

  energy without entropy =     -366.26897999  energy(sigma->0) =     -366.26897999


--------------------------------------------------------------------------------------------------------




--------------------------------------- Iteration      1(   5)  ---------------------------------------


     EDDAV:  cpu time  175.1978: real time  175.2678
 BZINTS: Fermi energy:  0.651846;671.000000 electrons
         Band energy:***********;  BLOECHL correction: -0.044371
       DOS:  cpu time    0.2434: real time    0.2434
    --------------------------------------------
      LOOP:  cpu time  175.4421: real time  175.5112

 eigenvalue-minimisations  : 37203
 total energy-change (2. order) :-0.2513961E+01  (-0.2494945E+01)
 number of electron     671.0000064 magnetization      43.6707517
 augmentation part      671.0000064 magnetization      43.6707517

 DIPCOR: dipole corrections for dipol
 direction  3 min pos   246,
 dipolmoment           0.000000      0.000000      0.117906 electrons x Angstroem
 Tr[quadrupol]    -11038.275040

 energy correction for charged system         0.000000 eV
 dipol+quadrupol energy correction           -0.000693 eV
 added-field ion interaction          3.004550 eV  (added to PSCEN)


 Free energy of the ion-electron system (eV)
  ---------------------------------------------------
  alpha Z        PSCENC =      1252.88477288
  Ewald energy   TEWEN  =    248445.36182444
  -Hartree energ DENC   =   -317638.02716124
  -exchange      EXHF   =         0.00000000
  -V(xc)+E(xc)   XCENC  =      2102.02698285
  PAW double counting   =     74896.71591351   -79294.54579213
  entropy T*S    EENTRO =         0.00000000
  eigenvalues    EBANDS =     -1278.41522695
  atomic energy  EATOM  =     71145.21574525
  Solvation  Ediel_sol  =         0.00000000
  ---------------------------------------------------
  free energy    TOTEN  =      -368.78294139 eV

  energy without entropy =     -368.78294139  energy(sigma->0) =     -368.78294139


--------------------------------------------------------------------------------------------------------




--------------------------------------- Iteration      1(   6)  ---------------------------------------


    EDDIAG:  cpu time   24.6063: real time   24.6292
  RMM-DIIS:  cpu time   89.7610: real time   89.7954
    ORTHCH:  cpu time    7.0958: real time    7.0976
 BZINTS: Fermi energy:  0.651803;671.000000 electrons
         Band energy:***********;  BLOECHL correction: -0.044429
       DOS:  cpu time    0.2429: real time    0.2429
    --------------------------------------------
      LOOP:  cpu time  121.7050: real time  121.7652

 eigenvalue-minimisations  : 37607
 total energy-change (2. order) :-0.6508392E-01  (-0.6505912E-01)
 number of electron     671.0000064 magnetization      43.6707517
 augmentation part      671.0000064 magnetization      43.6707517

 DIPCOR: dipole corrections for dipol
 direction  3 min pos   246,
 dipolmoment           0.000000      0.000000      0.117906 electrons x Angstroem
 Tr[quadrupol]    -11038.275040

 energy correction for charged system         0.000000 eV
 dipol+quadrupol energy correction           -0.000693 eV
 added-field ion interaction          3.004550 eV  (added to PSCEN)


 Free energy of the ion-electron system (eV)
  ---------------------------------------------------
  alpha Z        PSCENC =      1252.88477288
  Ewald energy   TEWEN  =    248445.36182444
  -Hartree energ DENC   =   -317638.02716124
  -exchange      EXHF   =         0.00000000
  -V(xc)+E(xc)   XCENC  =      2102.02698285
  PAW double counting   =     74896.71591351   -79294.54579213
  entropy T*S    EENTRO =         0.00000000
  eigenvalues    EBANDS =     -1278.48031087
  atomic energy  EATOM  =     71145.21574525
  Solvation  Ediel_sol  =         0.00000000
  ---------------------------------------------------
  free energy    TOTEN  =      -368.84802531 eV

  energy without entropy =     -368.84802531  energy(sigma->0) =     -368.84802531


--------------------------------------------------------------------------------------------------------




--------------------------------------- Iteration      1(   7)  ---------------------------------------


    EDDIAG:  cpu time   24.5991: real time   24.6158
  RMM-DIIS:  cpu time  127.4695: real time  127.5118
    ORTHCH:  cpu time    7.0868: real time    7.0886
 BZINTS: Fermi energy:  0.651800;671.000000 electrons
         Band energy:***********;  BLOECHL correction: -0.044430
       DOS:  cpu time    0.2469: real time    0.2471
    --------------------------------------------
      LOOP:  cpu time  159.4023: real time  159.4632

 eigenvalue-minimisations  : 54402
 total energy-change (2. order) :-0.2144870E-01  (-0.2201323E-01)
 number of electron     671.0000064 magnetization      43.6707517
 augmentation part      671.0000064 magnetization      43.6707517

 DIPCOR: dipole corrections for dipol
 direction  3 min pos   246,
 dipolmoment           0.000000      0.000000      0.117906 electrons x Angstroem
 Tr[quadrupol]    -11038.275040

 energy correction for charged system         0.000000 eV
 dipol+quadrupol energy correction           -0.000693 eV
 added-field ion interaction          3.004550 eV  (added to PSCEN)


 Free energy of the ion-electron system (eV)
  ---------------------------------------------------
  alpha Z        PSCENC =      1252.88477288
  Ewald energy   TEWEN  =    248445.36182444
  -Hartree energ DENC   =   -317638.02716124
  -exchange      EXHF   =         0.00000000
  -V(xc)+E(xc)   XCENC  =      2102.02698285
  PAW double counting   =     74896.71591351   -79294.54579213
  entropy T*S    EENTRO =         0.00000000
  eigenvalues    EBANDS =     -1278.50175957
  atomic energy  EATOM  =     71145.21574525
  Solvation  Ediel_sol  =         0.00000000
  ---------------------------------------------------
  free energy    TOTEN  =      -368.86947401 eV

  energy without entropy =     -368.86947401  energy(sigma->0) =     -368.86947401


--------------------------------------------------------------------------------------------------------




--------------------------------------- Iteration      1(   8)  ---------------------------------------


    EDDIAG:  cpu time   24.5529: real time   24.5709
  RMM-DIIS:  cpu time  135.6600: real time  135.7069
    ORTHCH:  cpu time    7.0837: real time    7.0854
 BZINTS: Fermi energy:  0.651800;671.000000 electrons
         Band energy:***********;  BLOECHL correction: -0.044431
       DOS:  cpu time    0.2397: real time    0.2398
    --------------------------------------------
      LOOP:  cpu time  167.5363: real time  167.6029

 eigenvalue-minimisations  : 57744
 total energy-change (2. order) :-0.6210827E-04  (-0.7560237E-03)
 number of electron     671.0000064 magnetization      43.6707517
 augmentation part      671.0000064 magnetization      43.6707517

 DIPCOR: dipole corrections for dipol
 direction  3 min pos   246,
 dipolmoment           0.000000      0.000000      0.117906 electrons x Angstroem
 Tr[quadrupol]    -11038.275040

 energy correction for charged system         0.000000 eV
 dipol+quadrupol energy correction           -0.000693 eV
 added-field ion interaction          3.004550 eV  (added to PSCEN)


 Free energy of the ion-electron system (eV)
  ---------------------------------------------------
  alpha Z        PSCENC =      1252.88477288
  Ewald energy   TEWEN  =    248445.36182444
  -Hartree energ DENC   =   -317638.02716124
  -exchange      EXHF   =         0.00000000
  -V(xc)+E(xc)   XCENC  =      2102.02698285
  PAW double counting   =     74896.71591351   -79294.54579213
  entropy T*S    EENTRO =         0.00000000
  eigenvalues    EBANDS =     -1278.50182168
  atomic energy  EATOM  =     71145.21574525
  Solvation  Ediel_sol  =         0.00000000
  ---------------------------------------------------
  free energy    TOTEN  =      -368.86953612 eV

  energy without entropy =     -368.86953612  energy(sigma->0) =     -368.86953612


--------------------------------------------------------------------------------------------------------




--------------------------------------- Iteration      1(   9)  ---------------------------------------


    EDDIAG:  cpu time   24.5582: real time   24.5758
  RMM-DIIS:  cpu time  134.4939: real time  134.5395
    ORTHCH:  cpu time    7.0870: real time    7.0887
 BZINTS: Fermi energy:  0.651800;671.000000 electrons
         Band energy:***********;  BLOECHL correction: -0.044431
       DOS:  cpu time    0.2334: real time    0.2336
    --------------------------------------------
      LOOP:  cpu time  166.3734: real time  166.4376

 eigenvalue-minimisations  : 57272
 total energy-change (2. order) :-0.3009990E-03  (-0.3292872E-03)
 number of electron     671.0000064 magnetization      43.6707517
 augmentation part      671.0000064 magnetization      43.6707517

 DIPCOR: dipole corrections for dipol
 direction  3 min pos   246,
 dipolmoment           0.000000      0.000000      0.117906 electrons x Angstroem
 Tr[quadrupol]    -11038.275040

 energy correction for charged system         0.000000 eV
 dipol+quadrupol energy correction           -0.000693 eV
 added-field ion interaction          3.004550 eV  (added to PSCEN)


 Free energy of the ion-electron system (eV)
  ---------------------------------------------------
  alpha Z        PSCENC =      1252.88477288
  Ewald energy   TEWEN  =    248445.36182444
  -Hartree energ DENC   =   -317638.02716124
  -exchange      EXHF   =         0.00000000
  -V(xc)+E(xc)   XCENC  =      2102.02698285
  PAW double counting   =     74896.71591351   -79294.54579213
  entropy T*S    EENTRO =         0.00000000
  eigenvalues    EBANDS =     -1278.50212268
  atomic energy  EATOM  =     71145.21574525
  Solvation  Ediel_sol  =         0.00000000
  ---------------------------------------------------
  free energy    TOTEN  =      -368.86983712 eV

  energy without entropy =     -368.86983712  energy(sigma->0) =     -368.86983712


--------------------------------------------------------------------------------------------------------




--------------------------------------- Iteration      1(  10)  ---------------------------------------


    EDDIAG:  cpu time   24.5523: real time   24.5692
  RMM-DIIS:  cpu time   78.2153: real time   78.2418
    ORTHCH:  cpu time    7.0828: real time    7.0846
 BZINTS: Fermi energy:  0.651800;671.000000 electrons
         Band energy:***********;  BLOECHL correction: -0.044431
       DOS:  cpu time    0.2445: real time    0.2446
    --------------------------------------------
      LOOP:  cpu time  110.0940: real time  110.1402

 eigenvalue-minimisations  : 32048
 total energy-change (2. order) : 0.9618816E-06  (-0.6042448E-04)
 number of electron     671.0000064 magnetization      43.6707517
 augmentation part      671.0000064 magnetization      43.6707517

 DIPCOR: dipole corrections for dipol
 direction  3 min pos   246,
 dipolmoment           0.000000      0.000000      0.117906 electrons x Angstroem
 Tr[quadrupol]    -11038.275040

 energy correction for charged system         0.000000 eV
 dipol+quadrupol energy correction           -0.000693 eV
 added-field ion interaction          3.004550 eV  (added to PSCEN)


 Free energy of the ion-electron system (eV)
  ---------------------------------------------------
  alpha Z        PSCENC =      1252.88477288
  Ewald energy   TEWEN  =    248445.36182444
  -Hartree energ DENC   =   -317638.02716124
  -exchange      EXHF   =         0.00000000
  -V(xc)+E(xc)   XCENC  =      2102.02698285
  PAW double counting   =     74896.71591351   -79294.54579213
  entropy T*S    EENTRO =         0.00000000
  eigenvalues    EBANDS =     -1278.50212172
  atomic energy  EATOM  =     71145.21574525
  Solvation  Ediel_sol  =         0.00000000
  ---------------------------------------------------
  free energy    TOTEN  =      -368.86983616 eV

  energy without entropy =     -368.86983616  energy(sigma->0) =     -368.86983616


--------------------------------------------------------------------------------------------------------




--------------------------------------- Iteration      1(  11)  ---------------------------------------


    EDDIAG:  cpu time   24.5551: real time   24.5712
  RMM-DIIS:  cpu time   58.2396: real time   58.2593
    ORTHCH:  cpu time    7.0845: real time    7.0864
 BZINTS: Fermi energy:  0.651800;671.000000 electrons
         Band energy:***********;  BLOECHL correction: -0.044431
       DOS:  cpu time    0.2447: real time    0.2448
    --------------------------------------------
      LOOP:  cpu time   90.1240: real time   90.1617

 eigenvalue-minimisations  : 23330
 total energy-change (2. order) :-0.9498908E-05  (-0.2061834E-04)
 number of electron     671.0000064 magnetization      43.6707517
 augmentation part      671.0000064 magnetization      43.6707517

 DIPCOR: dipole corrections for dipol
 direction  3 min pos   246,
 dipolmoment           0.000000      0.000000      0.117906 electrons x Angstroem
 Tr[quadrupol]    -11038.275040

 energy correction for charged system         0.000000 eV
 dipol+quadrupol energy correction           -0.000693 eV
 added-field ion interaction          3.004550 eV  (added to PSCEN)


 Free energy of the ion-electron system (eV)
  ---------------------------------------------------
  alpha Z        PSCENC =      1252.88477288
  Ewald energy   TEWEN  =    248445.36182444
  -Hartree energ DENC   =   -317638.02716124
  -exchange      EXHF   =         0.00000000
  -V(xc)+E(xc)   XCENC  =      2102.02698285
  PAW double counting   =     74896.71591351   -79294.54579213
  entropy T*S    EENTRO =         0.00000000
  eigenvalues    EBANDS =     -1278.50213122
  atomic energy  EATOM  =     71145.21574525
  Solvation  Ediel_sol  =         0.00000000
  ---------------------------------------------------
  free energy    TOTEN  =      -368.86984566 eV

  energy without entropy =     -368.86984566  energy(sigma->0) =     -368.86984566


--------------------------------------------------------------------------------------------------------




--------------------------------------- Iteration      1(  12)  ---------------------------------------


    EDDIAG:  cpu time   24.5767: real time   24.5957
  RMM-DIIS:  cpu time   55.5939: real time   55.6120
    ORTHCH:  cpu time    7.0886: real time    7.0902
 BZINTS: Fermi energy:  0.651800;671.000000 electrons
         Band energy:***********;  BLOECHL correction: -0.044431
       DOS:  cpu time    0.2392: real time    0.2393
    --------------------------------------------
      LOOP:  cpu time   87.4985: real time   87.5372

 eigenvalue-minimisations  : 21932
 total energy-change (2. order) :-0.6669434E-06  (-0.5138504E-05)
 number of electron     671.0000064 magnetization      43.6707517
 augmentation part      671.0000064 magnetization      43.6707517

 DIPCOR: dipole corrections for dipol
 direction  3 min pos   246,
 dipolmoment           0.000000      0.000000      0.117906 electrons x Angstroem
 Tr[quadrupol]    -11038.275040

 energy correction for charged system         0.000000 eV
 dipol+quadrupol energy correction           -0.000693 eV
 added-field ion interaction          3.004550 eV  (added to PSCEN)


 Free energy of the ion-electron system (eV)
  ---------------------------------------------------
  alpha Z        PSCENC =      1252.88477288
  Ewald energy   TEWEN  =    248445.36182444
  -Hartree energ DENC   =   -317638.02716124
  -exchange      EXHF   =         0.00000000
  -V(xc)+E(xc)   XCENC  =      2102.02698285
  PAW double counting   =     74896.71591351   -79294.54579213
  entropy T*S    EENTRO =         0.00000000
  eigenvalues    EBANDS =     -1278.50213188
  atomic energy  EATOM  =     71145.21574525
  Solvation  Ediel_sol  =         0.00000000
  ---------------------------------------------------
  free energy    TOTEN  =      -368.86984633 eV

  energy without entropy =     -368.86984633  energy(sigma->0) =     -368.86984633


--------------------------------------------------------------------------------------------------------




--------------------------------------- Iteration      1(  13)  ---------------------------------------


    EDDIAG:  cpu time   24.5641: real time   24.5828
  RMM-DIIS:  cpu time   53.2241: real time   53.2400
    ORTHCH:  cpu time    7.0999: real time    7.1020
 BZINTS: Fermi energy:  0.651800;671.000000 electrons
         Band energy:***********;  BLOECHL correction: -0.044431
       DOS:  cpu time    0.2430: real time    0.2431
    --------------------------------------------
      LOOP:  cpu time   85.1311: real time   85.1678

 eigenvalue-minimisations  : 19832
 total energy-change (2. order) : 0.2525048E-06  (-0.1328911E-05)
 number of electron     671.0000064 magnetization      43.6707517
 augmentation part      671.0000064 magnetization      43.6707517

 DIPCOR: dipole corrections for dipol
 direction  3 min pos   246,
 dipolmoment           0.000000      0.000000      0.117906 electrons x Angstroem
 Tr[quadrupol]    -11038.275040

 energy correction for charged system         0.000000 eV
 dipol+quadrupol energy correction           -0.000693 eV
 added-field ion interaction          3.004550 eV  (added to PSCEN)


 Free energy of the ion-electron system (eV)
  ---------------------------------------------------
  alpha Z        PSCENC =      1252.88477288
  Ewald energy   TEWEN  =    248445.36182444
  -Hartree energ DENC   =   -317638.02716124
  -exchange      EXHF   =         0.00000000
  -V(xc)+E(xc)   XCENC  =      2102.02698285
  PAW double counting   =     74896.71591351   -79294.54579213
  entropy T*S    EENTRO =         0.00000000
  eigenvalues    EBANDS =     -1278.50213163
  atomic energy  EATOM  =     71145.21574525
  Solvation  Ediel_sol  =         0.00000000
  ---------------------------------------------------
  free energy    TOTEN  =      -368.86984607 eV

  energy without entropy =     -368.86984607  energy(sigma->0) =     -368.86984607


--------------------------------------------------------------------------------------------------------




--------------------------------------- Iteration      1(  14)  ---------------------------------------


    EDDIAG:  cpu time   24.5407: real time   24.5584
  RMM-DIIS:  cpu time   49.9729: real time   49.9900
    ORTHCH:  cpu time    7.0958: real time    7.0975
 BZINTS: Fermi energy:  0.651800;671.000000 electrons
         Band energy:***********;  BLOECHL correction: -0.044431
       DOS:  cpu time    0.2437: real time    0.2437
    --------------------------------------------
      LOOP:  cpu time   81.8531: real time   81.8896

 eigenvalue-minimisations  : 16725
 total energy-change (2. order) :-0.1974986E-06  (-0.5372481E-06)
 number of electron     671.0000064 magnetization      43.6707517
 augmentation part      671.0000064 magnetization      43.6707517

 DIPCOR: dipole corrections for dipol
 direction  3 min pos   246,
 dipolmoment           0.000000      0.000000      0.117906 electrons x Angstroem
 Tr[quadrupol]    -11038.275040

 energy correction for charged system         0.000000 eV
 dipol+quadrupol energy correction           -0.000693 eV
 added-field ion interaction          3.004550 eV  (added to PSCEN)


 Free energy of the ion-electron system (eV)
  ---------------------------------------------------
  alpha Z        PSCENC =      1252.88477288
  Ewald energy   TEWEN  =    248445.36182444
  -Hartree energ DENC   =   -317638.02716124
  -exchange      EXHF   =         0.00000000
  -V(xc)+E(xc)   XCENC  =      2102.02698285
  PAW double counting   =     74896.71591351   -79294.54579213
  entropy T*S    EENTRO =         0.00000000
  eigenvalues    EBANDS =     -1278.50213183
  atomic energy  EATOM  =     71145.21574525
  Solvation  Ediel_sol  =         0.00000000
  ---------------------------------------------------
  free energy    TOTEN  =      -368.86984627 eV

  energy without entropy =     -368.86984627  energy(sigma->0) =     -368.86984627


--------------------------------------------------------------------------------------------------------




 average (electrostatic) potential at core
  the test charge radii are     0.9791  0.7215  0.5201
  (the norm of the test charge is              1.0000)
       1 -90.4820       2 -90.8451       3 -90.7877       4 -90.7973       5 -90.4806
       6 -90.9520       7 -90.8051       8 -90.7882       9 -90.4810      10 -90.9597
      11 -90.7879      12 -90.7889      13 -90.4816      14 -90.8433      15 -90.8186
      16 -90.7971      17 -90.4826      18 -90.8136      19 -90.7994      20 -90.6563
      21 -90.5181      22 -90.4156      23 -90.8054      24 -90.7895      25 -90.4806
      26 -90.9527      27 -90.8048      28 -90.6563      29 -90.5183      30 -90.4160
      31 -90.7996      32 -90.7889      33 -90.4832      34 -90.8142      35 -90.8024
      36 -90.7914      37 -90.4825      38 -90.8136      39 -90.7992      40 -90.7904
      41 -90.4819      42 -90.8447      43 -90.7874      44 -90.7894      45 -90.4810
      46 -90.8431      47 -90.7993      48 -90.7882      49 -90.4811      50 -90.8428
      51 -90.7994      52 -90.6567      53 -90.5183      54 -90.4151      55 -90.7994
      56 -90.7910      57 -90.4816      58 -90.8430      59 -90.8184      60 -90.6564
      61 -90.5070      62 -90.4410      63 -90.8187      64 -90.7974      65 -75.5479
      66 -75.5466      67 -75.5737      68 -75.5435      69 -76.0511      70 -39.8622
 
 
 
 E-fermi :   0.6518     XC(G=0):  -6.1365     alpha+bet : -6.5302


 spin component 1

 k-point     1 :       0.0000    0.0000    0.0000
  band No.  band energies     occupation 
      1     -19.8917      1.00000
      2     -18.3725      1.00000
      3     -18.3569      1.00000
      4     -18.3552      1.00000
      5     -18.3518      1.00000
      6      -8.4438      1.00000
      7      -7.8649      1.00000
      8      -6.4384      1.00000
      9      -6.0931      1.00000
     10      -6.0931      1.00000
     11      -6.0198      1.00000
     12      -5.9934      1.00000
     13      -5.9920      1.00000
     14      -5.9512      1.00000
     15      -5.3150      1.00000
     16      -5.3148      1.00000
     17      -5.2371      1.00000
     18      -5.0999      1.00000
     19      -5.0944      1.00000
     20      -5.0322      1.00000
     21      -4.9356      1.00000
     22      -4.9355      1.00000
     23      -4.9015      1.00000
     24      -4.8430      1.00000
     25      -4.8417      1.00000
     26      -4.8079      1.00000
     27      -4.5094      1.00000
     28      -4.5083      1.00000
     29      -4.5018      1.00000
     30      -4.4248      1.00000
     31      -4.4239      1.00000
     32      -4.3950      1.00000
     33      -4.2965      1.00000
     34      -4.2244      1.00000
     35      -4.2213      1.00000
     36      -4.1159      1.00000
     37      -3.9474      1.00000
     38      -3.9390      1.00000
     39      -3.9381      1.00000
     40      -3.8841      1.00000
     41      -3.8705      1.00000
     42      -3.8698      1.00000
     43      -3.6020      1.00000
     44      -3.6011      1.00000
     45      -3.5752      1.00000
     46      -3.5729      1.00000
     47      -3.5721      1.00000
     48      -3.5620      1.00000
     49      -3.5265      1.00000
     50      -3.5138      1.00000
     51      -3.5124      1.00000
     52      -3.4578      1.00000
     53      -3.4238      1.00000
     54      -3.4221      1.00000
     55      -3.3450      1.00000
     56      -3.3411      1.00000
     57      -3.3401      1.00000
     58      -3.3265      1.00000
     59      -3.3117      1.00000
     60      -3.3107      1.00000
     61      -3.3099      1.00000
     62      -3.3053      1.00000
     63      -3.3052      1.00000
     64      -3.2717      1.00000
     65      -3.2582      1.00000
     66      -3.2579      1.00000
     67      -3.2097      1.00000
     68      -3.2054      1.00000
     69      -3.2040      1.00000
     70      -3.1994      1.00000
     71      -3.1989      1.00000
     72      -3.1979      1.00000
     73      -3.1556      1.00000
     74      -3.1439      1.00000
     75      -3.1436      1.00000
     76      -3.0617      1.00000
     77      -3.0594      1.00000
     78      -3.0151      1.00000
     79      -3.0138      1.00000
     80      -2.9701      1.00000
     81      -2.9016      1.00000
     82      -2.8494      1.00000
     83      -2.8420      1.00000
     84      -2.8412      1.00000
     85      -2.8278      1.00000
     86      -2.8260      1.00000
     87      -2.8228      1.00000
     88      -2.7849      1.00000
     89      -2.7840      1.00000
     90      -2.7764      1.00000
     91      -2.7756      1.00000
     92      -2.7571      1.00000
     93      -2.7461      1.00000
     94      -2.7443      1.00000
     95      -2.7424      1.00000
[...]
   0.336E+00 -.197E+00 0.321E+04   -.392E+00 0.225E+00 -.320E+04   0.118E-01 -.703E-02 -.143E+01   0.574E-01 -.297E-01 -.545E+00
   0.912E+02 -.527E+02 -.288E+04   -.928E+02 0.535E+02 0.288E+04   0.167E+01 -.973E+00 0.405E+00   -.746E-01 0.139E+00 -.105E+01
   -.290E+00 0.134E+00 0.122E+04   0.236E+00 -.134E+00 -.122E+04   0.594E-03 -.459E-03 -.293E+00   0.626E-01 -.374E-02 -.600E+00
   -.609E+01 -.344E+01 -.808E+03   0.588E+01 0.338E+01 0.808E+03   0.240E-01 0.992E-02 0.472E+00   0.185E+00 0.484E-01 -.927E+00
   -.424E+00 -.169E+00 0.321E+04   0.398E+00 0.176E+00 -.320E+04   -.139E-01 -.110E-01 -.142E+01   0.252E-01 -.369E-02 -.524E+00
   -.914E+02 -.526E+02 -.288E+04   0.929E+02 0.534E+02 0.288E+04   -.168E+01 -.968E+00 0.425E+00   0.184E+00 0.153E+00 -.113E+01
   -.344E+01 -.143E+01 0.121E+04   0.358E+01 0.112E+01 -.121E+04   0.267E-01 -.790E-01 -.169E+00   -.122E+00 0.373E+00 -.443E+00
   0.557E+01 -.322E+01 -.809E+03   -.540E+01 0.308E+01 0.809E+03   -.211E-01 0.129E-01 0.452E+00   -.147E+00 0.127E+00 -.897E+00
   0.141E+00 0.810E+00 0.321E+04   -.979E-01 -.624E+00 -.320E+04   0.355E-01 -.487E-02 -.144E+01   -.903E-01 -.174E+00 -.587E+00
   0.112E+03 -.588E+02 -.285E+04   -.113E+03 0.597E+02 0.285E+04   0.170E+01 -.855E+00 0.193E+00   -.612E-01 -.746E-01 -.103E+01
   0.911E-02 0.396E+01 0.121E+04   0.447E-01 -.404E+01 -.121E+04   0.838E-03 0.600E-01 -.207E+00   -.474E-01 0.282E-02 -.676E+00
   -.537E+00 -.118E+01 -.820E+03   0.660E+00 0.648E+00 0.820E+03   -.135E+00 0.190E+00 0.174E+00   -.641E-02 0.338E+00 -.801E+00
   -.559E-01 0.787E+00 0.321E+04   0.937E-01 -.581E+00 -.320E+04   -.340E-01 -.611E-02 -.145E+01   0.885E-02 -.193E+00 -.586E+00
   -.111E+03 -.591E+02 -.285E+04   0.113E+03 0.600E+02 0.285E+04   -.170E+01 -.861E+00 0.188E+00   -.398E-01 -.925E-01 -.990E+00
   0.329E+01 -.159E+01 0.121E+04   -.341E+01 0.139E+01 -.121E+04   -.239E-01 -.733E-01 -.166E+00   0.108E+00 0.260E+00 -.459E+00
   0.104E+01 -.139E+01 -.820E+03   -.112E+01 0.968E+00 0.820E+03   0.143E+00 0.196E+00 0.193E+00   -.505E-01 0.222E+00 -.846E+00
   -.711E+00 -.326E+00 0.321E+04   0.549E+00 0.211E+00 -.320E+04   -.118E-01 0.318E-01 -.145E+01   0.173E+00 0.683E-01 -.595E+00
   -.449E+01 0.126E+03 -.285E+04   0.443E+01 -.128E+03 0.285E+04   -.113E+00 0.190E+01 0.189E+00   0.148E+00 0.857E-01 -.993E+00
   0.299E+01 -.206E+01 0.121E+04   -.290E+01 0.227E+01 -.121E+04   0.515E-01 0.587E-01 -.165E+00   -.145E+00 -.238E+00 -.438E+00
   -.202E+01 0.113E+01 -.834E+03   0.208E+01 -.120E+01 0.836E+03   -.106E-01 0.581E-02 -.120E+01   -.507E-01 0.616E-01 -.832E+00
   -.364E-02 -.100E+01 0.321E+04   -.430E-01 0.882E+00 -.320E+04   -.215E-02 -.321E-01 -.120E+01   0.483E-01 0.165E+00 -.421E+00
   0.266E+00 0.302E+02 -.285E+04   -.353E+00 -.308E+02 0.285E+04   0.336E-02 0.387E+00 0.312E+01   0.799E-01 0.240E+00 -.104E+01
   -.318E+01 -.175E+01 0.121E+04   0.298E+01 0.198E+01 -.121E+04   -.524E-01 0.608E-01 -.175E+00   0.271E+00 -.259E+00 -.400E+00
   -.695E-01 0.692E+01 -.808E+03   -.193E-01 -.677E+01 0.808E+03   0.363E-02 -.363E-01 0.472E+00   0.830E-01 -.111E+00 -.889E+00
   0.708E+00 -.214E+00 0.321E+04   -.539E+00 0.157E+00 -.320E+04   0.159E-01 0.358E-01 -.145E+01   -.185E+00 0.660E-02 -.556E+00
   0.466E+01 0.126E+03 -.285E+04   -.461E+01 -.128E+03 0.285E+04   0.112E+00 0.191E+01 0.183E+00   -.147E+00 0.101E+00 -.105E+01
   0.465E+01 0.297E+01 0.121E+04   -.455E+01 -.294E+01 -.121E+04   0.767E-01 0.463E-01 -.173E+00   -.207E+00 -.902E-01 -.155E+00
   0.218E+01 0.161E+01 -.834E+03   -.225E+01 -.172E+01 0.836E+03   0.479E-02 0.108E-01 -.118E+01   0.557E-01 0.963E-01 -.882E+00
   0.235E-02 0.175E-01 0.321E+04   0.350E-01 -.177E-01 -.321E+04   -.169E-02 0.550E-03 -.127E+01   -.355E-01 -.720E-03 -.340E+00
   -.180E+00 0.782E-01 -.288E+04   0.254E+00 -.108E+00 0.288E+04   -.373E-02 0.104E-02 0.336E+01   -.720E-01 0.299E-01 -.137E+01
   -.486E+01 0.281E+01 0.121E+04   0.489E+01 -.281E+01 -.121E+04   -.731E-01 0.429E-01 -.172E+00   0.828E-01 -.675E-01 -.196E+00
   -.327E-01 0.496E+01 -.810E+03   0.117E+00 -.499E+01 0.810E+03   0.733E-03 -.978E-01 0.446E+00   -.856E-01 0.119E+00 -.981E+00
   0.419E+02 0.240E+02 -.230E+04   -.425E+02 -.244E+02 0.233E+04   0.441E+00 0.261E+00 -.286E+02   0.205E+00 0.107E+00 0.283E-01
   0.247E+00 -.483E+02 -.230E+04   -.213E+00 0.490E+02 0.233E+04   0.153E-02 -.510E+00 -.286E+02   -.349E-01 -.209E+00 0.367E-01
   -.197E-02 -.570E-01 -.231E+04   -.214E-01 0.422E-01 0.234E+04   0.190E-02 -.344E-02 -.283E+02   0.154E-01 0.230E-01 0.123E+00
   -.418E+02 0.243E+02 -.230E+04   0.424E+02 -.246E+02 0.233E+04   -.370E+00 0.224E+00 -.285E+02   -.239E+00 0.995E-01 -.258E-01
   0.158E+01 -.728E+00 -.224E+04   -.302E+01 0.146E+01 0.222E+04   0.141E+01 -.693E+00 0.189E+02   0.301E-01 -.364E-01 -.481E-01
   -.271E+01 0.135E+01 -.424E+03   0.298E+01 -.148E+01 0.432E+03   -.284E+00 0.141E+00 -.823E+01   0.126E-02 -.255E-02 0.657E-02
 -----------------------------------------------------------------------------------------------
   -.129E+01 0.651E+00 0.157E+03   0.100E-11 -.173E-12 0.165E-11   0.127E+01 -.621E+00 -.111E+03   0.382E-01 -.403E-01 -.457E+02
 
 
 POSITION                                       TOTAL-FORCE (eV/Angst)
 -----------------------------------------------------------------------------------
     -0.00000      1.94796      2.00000        -0.013221      0.005162      0.250295
     -0.03468      1.96072      8.06479         0.032670     -0.042739      0.008252
      1.24593      1.22862      4.03457         0.020484      0.004590     -0.201242
      0.00517      0.50721      6.00617         0.004486      0.003213      0.004476
      2.49184      1.94796      2.00000         0.007511      0.004491      0.258125
      2.47812      1.92896      8.14739        -0.051896     -0.027038      0.036165
      3.73777      1.22862      4.03457         0.005393      0.013218     -0.153636
      2.49122      0.51860      6.02665         0.008628     -0.003409     -0.003919
      4.98369      1.94796      2.00000        -0.007649      0.003886      0.257894
      5.01989      1.92787      8.13874         0.044798     -0.025558      0.046790
      6.22962      1.22862      4.03457        -0.003774      0.003091     -0.205226
      4.99452      0.51819      6.02525        -0.012454     -0.004325     -0.003865
      7.47553      1.94796      2.00000         0.012766      0.006847      0.250411
      7.53173      1.96080      8.06428        -0.042459     -0.045528      0.010702
      8.72146      1.22862      4.03457         0.007515      0.036531     -0.271600
      7.48009      0.50712      6.00626        -0.007512      0.004281      0.004175
     -1.24593      4.10596      2.00000        -0.000648      0.016073      0.234234
     -1.23618      4.07609      8.06936        -0.003249      0.043583      0.020081
      0.00000      3.38662      4.03457         0.032172     -0.031626     -0.252460
     -1.24050      2.66844      6.04026        -0.000715      0.000348      0.025323
      1.24592      4.10596      2.00000         0.008961     -0.005831      0.139473
      1.23506      4.11305      7.94582         0.007811     -0.004723      0.054488
      2.49185      3.38662      4.03457         0.019687     -0.010829     -0.154410
      1.25861      2.65399      6.02671         0.000121      0.012720     -0.004082
      3.73776      4.10596      2.00000        -0.000584     -0.009503      0.258181
      3.74811      4.12845      8.14698        -0.002943      0.059953      0.035429
      4.98369      3.38662      4.03457        -0.008002     -0.010301     -0.153322
      3.74263      2.66490      6.07006        -0.001578      0.001035      0.029514
      6.22961      4.10596      2.00000        -0.009861     -0.005510      0.139588
      6.26036      4.11319      7.94467        -0.012958     -0.003102      0.053318
      7.47554      3.38662      4.03457        -0.014771     -0.030517     -0.256338
      6.22776      2.65414      6.02529        -0.002466      0.013120     -0.004717
     -2.49185      6.26396      2.00000         0.013742     -0.008401      0.235338
     -2.50396      6.27186      8.06892         0.036950     -0.021589      0.022210
     -1.24592      5.54462      4.03457         0.008257     -0.004179     -0.266336
     -2.48650      4.82333      6.00117        -0.000120      0.002188     -0.000733
     -0.00000      6.26396      2.00000        -0.014751     -0.008260      0.234157
      0.03189      6.27201      8.06914        -0.041382     -0.021252      0.020223
      1.24593      5.54462      4.03457         0.044045     -0.011064     -0.252819
      0.00450      4.82314      6.00175        -0.003593      0.001360     -0.000420
      2.49184      6.26396      2.00000        -0.011503      0.008218      0.250446
      2.46423      6.28895      8.06460         0.057322     -0.009834      0.012639
      3.73777      5.54462      4.03457         0.007048     -0.018879     -0.201088
      2.51005      4.82156      6.02667        -0.011597     -0.006446     -0.003726
      4.98369      6.26396      2.00000         0.012503      0.007687      0.249984
      5.03164      6.28989      8.06483        -0.069557     -0.013163      0.016068
      6.22962      5.54462      4.03457        -0.029797     -0.009643     -0.252177
      4.97578      4.82185      6.02665         0.006786     -0.005553     -0.004997
     -3.73777      8.42196      2.00000        -0.000873     -0.015092      0.249970
     -3.73555      8.36881      8.06487        -0.023276      0.064771      0.016144
     -2.49184      7.70262      4.03457        -0.006082      0.032033     -0.252188
     -3.72987      6.97922      6.04035        -0.000596     -0.000177      0.024773
     -1.24593      8.42196      2.00000        -0.000731      0.010692      0.139643
     -1.23610      8.39305      7.94463        -0.003245      0.012258      0.053176
      0.00000      7.70262      4.03457         0.019725      0.029442     -0.256711
     -1.24116      6.98029      6.00114        -0.002414     -0.000612     -0.001285
      1.24592      8.42196      2.00000         0.000154     -0.014925      0.250522
      1.26377      8.36804      8.06413         0.018621      0.063270      0.015735
      2.49185      7.70262      4.03457        -0.026883     -0.023225     -0.271819
      1.24812      6.97876      6.04022        -0.001241     -0.000076      0.022465
      3.73776      8.42196      2.00000        -0.000133     -0.000171      0.132023
      3.74739      8.41722      7.96621        -0.001981      0.000893      0.055378
      4.98369      7.70262      4.03457         0.041950     -0.023235     -0.270803
      3.74257      6.98050      6.00617        -0.000852     -0.006103      0.004408
      1.13201      1.15197      9.21253         0.015356      0.006565     -0.092394
      3.74812      5.68259      9.21255         0.000360     -0.014619     -0.095375
     -1.23544      5.53999      9.18841        -0.006330      0.004907     -0.084021
      6.36480      1.15165      9.21105        -0.023443      0.011115     -0.096437
      3.76015      2.65589      9.46716        -0.002743      0.001562     -0.017584
      3.79386      2.63917     10.44100        -0.015962      0.007933     -0.036487
 -----------------------------------------------------------------------------------
    total drift:                                0.014677     -0.010846      0.205517


--------------------------------------------------------------------------------------------------------



  FREE ENERGIE OF THE ION-ELECTRON SYSTEM (eV)
  ---------------------------------------------------
  free  energy   TOTEN  =      -387.03932307 eV

  energy  without entropy=     -387.03932307  energy(sigma->0) =     -387.03932307
 


--------------------------------------------------------------------------------------------------------


    POTLOK:  cpu time    0.4416: real time    0.4418


--------------------------------------------------------------------------------------------------------


 stress matrix after NEB project (eV)
    -23.81156      0.18410     -0.50112
      0.18410    -23.62971      0.24611
     -0.50112      0.24611     -2.91744
  FORCES: max atom, RMS     0.099866    0.037827
  FORCE total and by dimension    0.316479    0.096437
  Stress total and by dimension   33.683175   23.811559
     LOOP+:  cpu time 2084.5226: real time 2088.7115
    4ORBIT:  cpu time    0.0000: real time    0.0000
 


 total charge     
 
# of ion       s       p       d       tot
------------------------------------------
    1        0.485   0.375   8.297   9.157
    2        0.502   0.522   8.327   9.352
    3        0.496   0.499   8.332   9.327
    4        0.497   0.504   8.311   9.311
    5        0.485   0.375   8.287   9.148
    6        0.443   0.527   8.318   9.287
    7        0.492   0.496   8.323   9.311
    8        0.497   0.502   8.314   9.313
    9        0.485   0.375   8.287   9.148
   10        0.445   0.531   8.315   9.291
   11        0.496   0.499   8.332   9.327
   12        0.497   0.503   8.314   9.314
   13        0.485   0.375   8.297   9.157
   14        0.503   0.523   8.327   9.353
   15        0.495   0.501   8.324   9.320
   16        0.497   0.504   8.310   9.310
   17        0.485   0.375   8.292   9.153
   18        0.496   0.510   8.329   9.335
   19        0.494   0.498   8.326   9.319
   20        0.503   0.506   8.321   9.330
   21        0.490   0.376   8.318   9.183
   22        0.480   0.379   8.369   9.228
   23        0.492   0.496   8.324   9.312
   24        0.497   0.503   8.315   9.314
   25        0.485   0.375   8.287   9.147
   26        0.443   0.527   8.318   9.288
   27        0.492   0.496   8.323   9.311
   28        0.493   0.487   8.318   9.298
   29        0.490   0.376   8.318   9.183
   30        0.480   0.379   8.370   9.229
   31        0.494   0.498   8.326   9.319
   32        0.497   0.503   8.314   9.314
   33        0.485   0.375   8.293   9.153
   34        0.496   0.509   8.329   9.334
   35        0.498   0.504   8.332   9.333
   36        0.497   0.505   8.315   9.318
   37        0.485   0.375   8.292   9.152
   38        0.496   0.510   8.329   9.335
   39        0.494   0.498   8.326   9.318
   40        0.497   0.505   8.314   9.316
   41        0.485   0.375   8.296   9.157
   42        0.502   0.522   8.327   9.351
   43        0.496   0.499   8.331   9.326
   44        0.497   0.503   8.315   9.314
   45        0.485   0.375   8.297   9.157
   46        0.502   0.522   8.328   9.353
   47        0.494   0.498   8.327   9.319
   48        0.497   0.502   8.314   9.313
   49        0.485   0.375   8.297   9.157
   50        0.502   0.522   8.327   9.352
   51        0.494   0.498   8.327   9.319
   52        0.503   0.506   8.322   9.331
   53        0.490   0.376   8.318   9.183
   54        0.480   0.379   8.368   9.227
   55        0.494   0.498   8.326   9.319
   56        0.497   0.505   8.315   9.317
   57        0.485   0.375   8.297   9.157
   58        0.502   0.523   8.327   9.352
   59        0.495   0.501   8.324   9.320
   60        0.503   0.506   8.321   9.330
   61        0.489   0.375   8.320   9.184
   62        0.470   0.378   8.374   9.222
   63        0.495   0.501   8.325   9.321
   64        0.497   0.504   8.311   9.311
   65        1.583   3.337   0.000   4.920
   66        1.583   3.337   0.000   4.920
   67        1.582   3.338   0.000   4.920
   68        1.583   3.336   0.000   4.919
   69        1.542   3.552   0.000   5.094
   70        0.602   0.119   0.000   0.721
--------------------------------------------------
tot         39.871  46.815 532.447 619.132
 


 magnetization (x)
 
# of ion       s       p       d       tot
------------------------------------------
    1       -0.009  -0.027   0.688   0.652
    2       -0.003  -0.013   0.547   0.532
    3       -0.008  -0.028   0.723   0.687
    4       -0.008  -0.026   0.720   0.687
    5       -0.009  -0.026   0.698   0.663
    6       -0.004  -0.010   0.698   0.683
    7       -0.007  -0.028   0.702   0.667
    8       -0.007  -0.026   0.705   0.672
    9       -0.009  -0.026   0.698   0.663
   10       -0.005  -0.010   0.692   0.677
   11       -0.008  -0.029   0.723   0.686
   12       -0.007  -0.026   0.705   0.672
   13       -0.009  -0.027   0.687   0.651
   14       -0.003  -0.013   0.547   0.531
   15       -0.008  -0.028   0.692   0.657
   16       -0.008  -0.026   0.722   0.688
   17       -0.008  -0.027   0.698   0.663
   18       -0.003  -0.013   0.570   0.554
   19       -0.007  -0.028   0.686   0.651
   20       -0.006  -0.022   0.561   0.533
   21       -0.002  -0.027   0.704   0.676
   22       -0.010  -0.016   0.767   0.740
   23       -0.007  -0.028   0.701   0.666
   24       -0.007  -0.026   0.705   0.672
   25       -0.009  -0.026   0.698   0.663
   26       -0.004  -0.010   0.697   0.682
   27       -0.007  -0.028   0.702   0.667
   28       -0.006  -0.023   0.654   0.625
   29       -0.002  -0.027   0.704   0.676
   30       -0.010  -0.016   0.766   0.740
   31       -0.007  -0.028   0.686   0.651
   32       -0.007  -0.026   0.705   0.672
   33       -0.008  -0.027   0.697   0.663
   34       -0.003  -0.013   0.569   0.553
   35       -0.008  -0.028   0.723   0.687
   36       -0.008  -0.026   0.711   0.678
   37       -0.008  -0.027   0.698   0.663
   38       -0.003  -0.013   0.571   0.555
   39       -0.007  -0.028   0.687   0.652
   40       -0.008  -0.026   0.713   0.679
   41       -0.009  -0.027   0.688   0.652
   42       -0.003  -0.013   0.548   0.532
   43       -0.008  -0.028   0.724   0.687
   44       -0.007  -0.026   0.705   0.672
   45       -0.009  -0.027   0.687   0.651
   46       -0.003  -0.013   0.548   0.532
   47       -0.007  -0.028   0.685   0.650
   48       -0.007  -0.026   0.705   0.672
   49       -0.009  -0.027   0.687   0.651
   50       -0.003  -0.013   0.548   0.533
   51       -0.007  -0.028   0.685   0.650
   52       -0.006  -0.022   0.560   0.532
   53       -0.002  -0.027   0.704   0.676
   54       -0.010  -0.016   0.768   0.742
   55       -0.007  -0.028   0.686   0.651
   56       -0.008  -0.026   0.712   0.678
   57       -0.009  -0.027   0.687   0.652
   58       -0.003  -0.013   0.547   0.532
   59       -0.008  -0.028   0.692   0.657
   60       -0.006  -0.022   0.561   0.533
   61       -0.001  -0.027   0.691   0.663
   62       -0.011  -0.015   0.749   0.722
   63       -0.008  -0.028   0.691   0.656
   64       -0.008  -0.026   0.720   0.687
   65        0.002   0.122   0.000   0.125
   66        0.002   0.122   0.000   0.125
   67        0.002   0.114   0.000   0.116
   68        0.002   0.122   0.000   0.124
   69        0.011   0.132   0.000   0.143
   70        0.001   0.002   0.000   0.003
--------------------------------------------------
tot         -0.406  -0.871  43.302  42.025
 
 BZINTS: Fermi energy:  0.651800;671.000000 electrons
         Band energy:***********;  BLOECHL correction: -0.044431

 total amount of memory used by VASP MPI-rank0   263736. kBytes
=======================================================================

   base      :      30000. kBytes
   nonlr-proj:      12485. kBytes
   fftplans  :       6402. kBytes
   grid      :      17692. kBytes
   one-center:         93. kBytes
   wavefun   :     197064. kBytes
 
  
  
 General timing and accounting informations for this job:
 ========================================================
  
                  Total CPU time used (sec):     2225.188
                            User time (sec):     2126.327
                          System time (sec):       98.860
                         Elapsed time (sec):     2232.910
  
                   Maximum memory used (kb):      522912.
                   Average memory used (kb):           0.
  
                          Minor page faults:     23906329
                          Major page faults:           42
                 Voluntary context switches:         3958
