   1   1   1   0
  0.1177589E+02  0.2482400E-09  0.2482400E-09  0.2482400E-09  0.5000000E-15
  1.000000000000000E-004
  CAR 
 SQS-NiFe                                
     46.13792975     -5.07323380  301      5.38157468      1.00000000
     -5.073  0.0000E+00  0.0000E+00  0.0000E+00  0.0000E+00
     -4.903  0.0000E+00  0.0000E+00  0.0000E+00  0.0000E+00
     -4.732  0.0000E+00  0.0000E+00  0.0000E+00  0.0000E+00
     -4.561  0.0000E+00  0.0000E+00  0.0000E+00  0.0000E+00
     -4.390  0.0000E+00  0.0000E+00  0.0000E+00  0.0000E+00
     -4.220  0.0000E+00  0.0000E+00  0.0000E+00  0.0000E+00
     -4.049  0.0000E+00  0.0000E+00  0.0000E+00  0.0000E+00
     -3.878  0.0000E+00  0.0000E+00  0.0000E+00  0.0000E+00
     -3.708  0.0000E+00  0.0000E+00  0.0000E+00  0.0000E+00
     -3.537  0.0000E+00  0.0000E+00  0.0000E+00  0.0000E+00
     -3.366  0.0000E+00  0.0000E+00  0.0000E+00  0.0000E+00
     -3.195  0.0000E+00  0.0000E+00  0.0000E+00  0.0000E+00
     -3.025  0.0000E+00  0.0000E+00  0.0000E+00  0.0000E+00
     -2.854  0.0000E+00  0.0000E+00  0.0000E+00  0.0000E+00
     -2.683  0.1692E-02  0.0000E+00  0.3502E-04  0.0000E+00
     -2.513  0.1346E-01  0.4507E-02  0.1649E-02  0.1532E-03
     -2.342  0.2135E-01  0.1497E-01  0.4620E-02  0.2195E-02
     -2.171  0.2588E-01  0.2249E-01  0.8735E-02  0.5432E-02
     -2.001  0.3091E-01  0.2628E-01  0.1354E-01  0.9647E-02
     -1.830  0.3588E-01  0.3077E-01  0.1921E-01  0.1454E-01
     -1.659  0.3958E-01  0.3592E-01  0.2565E-01  0.2024E-01
     -1.488  0.4410E-01  0.3904E-01  0.3279E-01  0.2661E-01
     -1.318  0.4802E-01  0.4303E-01  0.4065E-01  0.3362E-01
     -1.147  0.5364E-01  0.4633E-01  0.4931E-01  0.4124E-01
     -0.976  0.5803E-01  0.5117E-01  0.5885E-01  0.4955E-01
     -0.806  0.6348E-01  0.5444E-01  0.6919E-01  0.5857E-01
     -0.635  0.6934E-01  0.5831E-01  0.8053E-01  0.6817E-01
     -0.464  0.7597E-01  0.6234E-01  0.9290E-01  0.7847E-01
     -0.294  0.8443E-01  0.6656E-01  0.1066E+00  0.8946E-01
     -0.123  0.9373E-01  0.7160E-01  0.1218E+00  0.1013E+00
      0.048  0.1066E+00  0.7656E-01  0.1388E+00  0.1139E+00
      0.219  0.1221E+00  0.8122E-01  0.1583E+00  0.1274E+00
      0.389  0.1442E+00  0.8732E-01  0.1809E+00  0.1417E+00
      0.560  0.1819E+00  0.9382E-01  0.2083E+00  0.1572E+00
      0.731  0.3111E+00  0.1010E+00  0.2478E+00  0.1738E+00
      0.901  0.4799E+00  0.1097E+00  0.3250E+00  0.1917E+00
      1.072  0.6081E+00  0.1199E+00  0.4192E+00  0.2113E+00
      1.243  0.7389E+00  0.1311E+00  0.5346E+00  0.2327E+00
      1.414  0.9709E+00  0.1468E+00  0.6749E+00  0.2565E+00
      1.584  0.8763E+00  0.1650E+00  0.8643E+00  0.2830E+00
      1.755  0.6630E+00  0.1938E+00  0.9891E+00  0.3134E+00
      1.926  0.3752E+00  0.2458E+00  0.1079E+01  0.3504E+00
      2.096  0.5360E+00  0.3745E+00  0.1138E+01  0.4010E+00
      2.267  0.2012E+01  0.3625E+00  0.1417E+01  0.4623E+00
      2.438  0.1114E+01  0.3693E+00  0.1668E+01  0.5246E+00
      2.608  0.1113E+01  0.3841E+00  0.1859E+01  0.5892E+00
      2.779  0.1101E+01  0.4880E+00  0.2034E+01  0.6611E+00
      2.950  0.1735E+01  0.6660E+00  0.2266E+01  0.7608E+00
      3.121  0.1390E+01  0.6771E+00  0.2571E+01  0.8777E+00
      3.291  0.5589E+00  0.4538E+00  0.2705E+01  0.9709E+00
      3.462  0.4488E+00  0.3581E+00  0.2789E+01  0.1040E+01
      3.633  0.4641E+00  0.2297E+00  0.2865E+01  0.1089E+01
      3.803  0.5368E+00  0.8397E+00  0.2949E+01  0.1143E+01
      3.974  0.7285E+00  0.1318E+01  0.3054E+01  0.1334E+01
      4.145  0.1486E+01  0.1367E+01  0.3234E+01  0.1573E+01
      4.315  0.1938E+01  0.1275E+01  0.3534E+01  0.1799E+01
      4.486  0.2800E+01  0.1048E+01  0.3885E+01  0.2002E+01
      4.657  0.2651E+01  0.1268E+01  0.4279E+01  0.2188E+01
      4.828  0.1239E+01  0.1399E+01  0.4607E+01  0.2425E+01
      4.998  0.9451E+00  0.9736E+00  0.4789E+01  0.2620E+01
      5.169  0.8997E+00  0.7606E+00  0.4945E+01  0.2771E+01
      5.340  0.8949E+00  0.2783E+00  0.5102E+01  0.2849E+01
      5.510  0.4273E+00  0.2403E+00  0.5229E+01  0.2892E+01
      5.681  0.1544E+00  0.3076E+00  0.5269E+01  0.2932E+01
      5.852  0.1554E+00  0.2602E+00  0.5295E+01  0.2974E+01
      6.023  0.1536E+00  0.3128E+00  0.5321E+01  0.3024E+01
      6.193  0.1552E+00  0.4588E+00  0.5348E+01  0.3088E+01
      6.364  0.1521E+00  0.7994E+00  0.5374E+01  0.3196E+01
      6.535  0.1531E+00  0.9313E+00  0.5400E+01  0.3343E+01
      6.705  0.1504E+00  0.1138E+01  0.5426E+01  0.3517E+01
      6.876  0.1500E+00  0.1628E+01  0.5452E+01  0.3758E+01
      7.047  0.1494E+00  0.1229E+01  0.5477E+01  0.4022E+01
      7.217  0.1480E+00  0.1343E+01  0.5503E+01  0.4244E+01
      7.388  0.1436E+00  0.3811E+01  0.5528E+01  0.4689E+01
      7.559  0.1407E+00  0.1139E+01  0.5552E+01  0.4959E+01
      7.730  0.1373E+00  0.8739E+00  0.5576E+01  0.5129E+01
      7.900  0.1347E+00  0.5207E+00  0.5599E+01  0.5259E+01
      8.071  0.1329E+00  0.2454E+00  0.5622E+01  0.5316E+01
      8.242  0.1315E+00  0.2452E+00  0.5644E+01  0.5358E+01
      8.412  0.1283E+00  0.2240E+00  0.5666E+01  0.5398E+01
      8.583  0.1251E+00  0.2128E+00  0.5688E+01  0.5436E+01
      8.754  0.1197E+00  0.2049E+00  0.5709E+01  0.5471E+01
      8.924  0.1167E+00  0.1942E+00  0.5729E+01  0.5505E+01
      9.095  0.1130E+00  0.1866E+00  0.5749E+01  0.5538E+01
      9.266  0.1091E+00  0.1765E+00  0.5768E+01  0.5569E+01
      9.437  0.1056E+00  0.1699E+00  0.5786E+01  0.5598E+01
      9.607  0.1024E+00  0.1638E+00  0.5804E+01  0.5627E+01
      9.778  0.9782E-01  0.1584E+00  0.5821E+01  0.5654E+01
      9.949  0.9428E-01  0.1520E+00  0.5837E+01  0.5681E+01
     10.119  0.9226E-01  0.1456E+00  0.5853E+01  0.5706E+01
     10.290  0.8663E-01  0.1388E+00  0.5868E+01  0.5730E+01
     10.461  0.8105E-01  0.1329E+00  0.5883E+01  0.5754E+01
     10.632  0.7752E-01  0.1265E+00  0.5896E+01  0.5776E+01
     10.802  0.7271E-01  0.1207E+00  0.5909E+01  0.5797E+01
     10.973  0.6786E-01  0.1146E+00  0.5921E+01  0.5817E+01
     11.144  0.5875E-01  0.1093E+00  0.5932E+01  0.5836E+01
     11.314  0.5075E-01  0.1038E+00  0.5941E+01  0.5854E+01
     11.485  0.4631E-01  0.9853E-01  0.5949E+01  0.5872E+01
     11.656  0.4268E-01  0.9072E-01  0.5957E+01  0.5888E+01
     11.826  0.3749E-01  0.8607E-01  0.5964E+01  0.5903E+01
     11.997  0.3151E-01  0.7849E-01  0.5970E+01  0.5917E+01
     12.168  0.2496E-01  0.7418E-01  0.5975E+01  0.5930E+01
     12.339  0.2137E-01  0.5895E-01  0.5978E+01  0.5942E+01
     12.509  0.2388E-01  0.5313E-01  0.5982E+01  0.5951E+01
     12.680  0.1154E+00  0.4820E-01  0.5993E+01  0.5960E+01
     12.851  0.2108E+00  0.4376E-01  0.6021E+01  0.5968E+01
     13.021  0.2353E+00  0.3577E-01  0.6061E+01  0.5975E+01
     13.192  0.2383E+00  0.2379E-01  0.6101E+01  0.5980E+01
     13.363  0.2407E+00  0.1821E-01  0.6143E+01  0.5983E+01
     13.533  0.2143E+00  0.1855E-01  0.6181E+01  0.5986E+01
     13.704  0.2063E+00  0.2226E-01  0.6218E+01  0.5990E+01
     13.875  0.1911E+00  0.3521E-01  0.6252E+01  0.5994E+01
     14.046  0.1758E+00  0.2206E+00  0.6284E+01  0.6012E+01
     14.216  0.1674E+00  0.3183E+00  0.6313E+01  0.6064E+01
     14.387  0.1617E+00  0.3062E+00  0.6341E+01  0.6117E+01
     14.558  0.1553E+00  0.2830E+00  0.6368E+01  0.6167E+01
     14.728  0.1533E+00  0.2433E+00  0.6395E+01  0.6212E+01
     14.899  0.1741E+00  0.2298E+00  0.6423E+01  0.6251E+01
     15.070  0.1898E+00  0.2027E+00  0.6454E+01  0.6288E+01
     15.241  0.1872E+00  0.1977E+00  0.6486E+01  0.6322E+01
     15.411  0.2250E+00  0.1847E+00  0.6519E+01  0.6355E+01
     15.582  0.1994E+00  0.1734E+00  0.6555E+01  0.6385E+01
     15.753  0.2008E+00  0.1979E+00  0.6588E+01  0.6415E+01
     15.923  0.1940E+00  0.2139E+00  0.6622E+01  0.6451E+01
     16.094  0.1943E+00  0.2149E+00  0.6655E+01  0.6488E+01
     16.265  0.1942E+00  0.2160E+00  0.6688E+01  0.6524E+01
     16.435  0.1925E+00  0.2095E+00  0.6721E+01  0.6561E+01
     16.606  0.1923E+00  0.2081E+00  0.6754E+01  0.6596E+01
     16.777  0.1909E+00  0.2090E+00  0.6787E+01  0.6632E+01
     16.948  0.1937E+00  0.2053E+00  0.6820E+01  0.6668E+01
     17.118  0.1932E+00  0.2023E+00  0.6853E+01  0.6702E+01
     17.289  0.1889E+00  0.2011E+00  0.6885E+01  0.6737E+01
     17.460  0.1875E+00  0.2000E+00  0.6918E+01  0.6771E+01
     17.630  0.1840E+00  0.2033E+00  0.6949E+01  0.6806E+01
     17.801  0.1832E+00  0.2030E+00  0.6980E+01  0.6840E+01
     17.972  0.1824E+00  0.2006E+00  0.7012E+01  0.6875E+01
     18.142  0.1815E+00  0.1956E+00  0.7043E+01  0.6909E+01
     18.313  0.1788E+00  0.1925E+00  0.7074E+01  0.6942E+01
     18.484  0.1784E+00  0.1921E+00  0.7104E+01  0.6974E+01
     18.655  0.1773E+00  0.1914E+00  0.7134E+01  0.7007E+01
     18.825  0.1795E+00  0.1902E+00  0.7165E+01  0.7040E+01
     18.996  0.1768E+00  0.1882E+00  0.7195E+01  0.7072E+01
     19.167  0.1753E+00  0.1864E+00  0.7225E+01  0.7104E+01
     19.337  0.1751E+00  0.1854E+00  0.7255E+01  0.7136E+01
     19.508  0.1737E+00  0.1859E+00  0.7285E+01  0.7168E+01
     19.679  0.1724E+00  0.1844E+00  0.7314E+01  0.7199E+01
     19.850  0.1719E+00  0.1833E+00  0.7344E+01  0.7231E+01
     20.020  0.1713E+00  0.1826E+00  0.7373E+01  0.7262E+01
     20.191  0.1703E+00  0.1819E+00  0.7402E+01  0.7293E+01
     20.362  0.1704E+00  0.1807E+00  0.7432E+01  0.7324E+01
     20.532  0.1685E+00  0.1797E+00  0.7460E+01  0.7355E+01
     20.703  0.1658E+00  0.1789E+00  0.7489E+01  0.7386E+01
     20.874  0.1667E+00  0.1795E+00  0.7517E+01  0.7416E+01
     21.044  0.1757E+00  0.1778E+00  0.7546E+01  0.7447E+01
     21.215  0.1775E+00  0.1755E+00  0.7577E+01  0.7477E+01
     21.386  0.1873E+00  0.1737E+00  0.7608E+01  0.7507E+01
     21.557  0.1940E+00  0.1741E+00  0.7640E+01  0.7536E+01
     21.727  0.1953E+00  0.1726E+00  0.7674E+01  0.7566E+01
     21.898  0.2060E+00  0.1896E+00  0.7708E+01  0.7596E+01
     22.069  0.2109E+00  0.1943E+00  0.7743E+01  0.7629E+01
     22.239  0.2157E+00  0.2078E+00  0.7780E+01  0.7663E+01
     22.410  0.2210E+00  0.2114E+00  0.7817E+01  0.7700E+01
     22.581  0.2270E+00  0.2242E+00  0.7855E+01  0.7737E+01
     22.751  0.2401E+00  0.2333E+00  0.7895E+01  0.7776E+01
     22.922  0.2500E+00  0.2422E+00  0.7937E+01  0.7817E+01
     23.093  0.2486E+00  0.2556E+00  0.7979E+01  0.7859E+01
     23.264  0.2535E+00  0.2732E+00  0.8022E+01  0.7904E+01
     23.434  0.2563E+00  0.2780E+00  0.8066E+01  0.7951E+01
     23.605  0.2546E+00  0.2626E+00  0.8110E+01  0.7998E+01
     23.776  0.2531E+00  0.2573E+00  0.8153E+01  0.8042E+01
     23.946  0.2556E+00  0.2581E+00  0.8196E+01  0.8086E+01
     24.117  0.2573E+00  0.2591E+00  0.8240E+01  0.8130E+01
     24.288  0.2682E+00  0.2577E+00  0.8285E+01  0.8174E+01
     24.459  0.2894E+00  0.2634E+00  0.8332E+01  0.8219E+01
     24.629  0.3172E+00  0.2650E+00  0.8384E+01  0.8264E+01
     24.800  0.2964E+00  0.2817E+00  0.8436E+01  0.8310E+01
     24.971  0.2840E+00  0.3125E+00  0.8486E+01  0.8361E+01
     25.141  0.2748E+00  0.3028E+00  0.8534E+01  0.8414E+01
     25.312  0.2588E+00  0.2933E+00  0.8579E+01  0.8465E+01
     25.483  0.2504E+00  0.2832E+00  0.8623E+01  0.8514E+01
     25.653  0.2442E+00  0.2725E+00  0.8665E+01  0.8562E+01
     25.824  0.2382E+00  0.2591E+00  0.8706E+01  0.8607E+01
     25.995  0.2364E+00  0.2492E+00  0.8747E+01  0.8650E+01
     26.166  0.2201E+00  0.2447E+00  0.8786E+01  0.8693E+01
     26.336  0.2158E+00  0.2349E+00  0.8823E+01  0.8733E+01
     26.507  0.2087E+00  0.2296E+00  0.8860E+01  0.8773E+01
     26.678  0.2005E+00  0.2262E+00  0.8895E+01  0.8812E+01
     26.848  0.1867E+00  0.2123E+00  0.8928E+01  0.8849E+01
     27.019  0.1725E+00  0.2046E+00  0.8958E+01  0.8885E+01
     27.190  0.1574E+00  0.1957E+00  0.8986E+01  0.8919E+01
     27.361  0.1322E+00  0.1838E+00  0.9012E+01  0.8952E+01
     27.531  0.1260E+00  0.1623E+00  0.9033E+01  0.8981E+01
     27.702  0.1227E+00  0.1407E+00  0.9055E+01  0.9007E+01
     27.873  0.1202E+00  0.1349E+00  0.9075E+01  0.9030E+01
     28.043  0.1188E+00  0.1291E+00  0.9096E+01  0.9053E+01
     28.214  0.1194E+00  0.1252E+00  0.9116E+01  0.9075E+01
     28.385  0.1202E+00  0.1231E+00  0.9136E+01  0.9096E+01
     28.555  0.1275E+00  0.1213E+00  0.9158E+01  0.9117E+01
     28.726  0.1406E+00  0.1288E+00  0.9181E+01  0.9138E+01
     28.897  0.1530E+00  0.1299E+00  0.9206E+01  0.9160E+01
     29.068  0.1660E+00  0.1405E+00  0.9233E+01  0.9183E+01
     29.238  0.1830E+00  0.1560E+00  0.9263E+01  0.9208E+01
     29.409  0.2033E+00  0.1734E+00  0.9296E+01  0.9237E+01
     29.580  0.2351E+00  0.1935E+00  0.9333E+01  0.9268E+01
     29.750  0.2796E+00  0.2246E+00  0.9377E+01  0.9304E+01
     29.921  0.3416E+00  0.2477E+00  0.9430E+01  0.9345E+01
     30.092  0.3439E+00  0.2594E+00  0.9491E+01  0.9389E+01
     30.262  0.2967E+00  0.3043E+00  0.9547E+01  0.9437E+01
     30.433  0.2369E+00  0.3667E+00  0.9591E+01  0.9494E+01
     30.604  0.2033E+00  0.3278E+00  0.9629E+01  0.9554E+01
     30.775  0.1805E+00  0.2486E+00  0.9661E+01  0.9603E+01
     30.945  0.1626E+00  0.2074E+00  0.9691E+01  0.9642E+01
     31.116  0.1421E+00  0.1833E+00  0.9717E+01  0.9675E+01
     31.287  0.1236E+00  0.1618E+00  0.9740E+01  0.9704E+01
     31.457  0.1080E+00  0.1415E+00  0.9759E+01  0.9730E+01
     31.628  0.9323E-01  0.1227E+00  0.9777E+01  0.9753E+01
     31.799  0.8001E-01  0.1083E+00  0.9791E+01  0.9773E+01
     31.970  0.7324E-01  0.9601E-01  0.9804E+01  0.9790E+01
     32.140  0.6783E-01  0.8318E-01  0.9816E+01  0.9805E+01
     32.311  0.6478E-01  0.7154E-01  0.9828E+01  0.9818E+01
     32.482  0.5994E-01  0.6456E-01  0.9838E+01  0.9830E+01
     32.652  0.5670E-01  0.6088E-01  0.9848E+01  0.9841E+01
     32.823  0.5150E-01  0.5741E-01  0.9858E+01  0.9851E+01
     32.994  0.4867E-01  0.5420E-01  0.9867E+01  0.9860E+01
     33.164  0.4596E-01  0.5125E-01  0.9875E+01  0.9869E+01
     33.335  0.4354E-01  0.4916E-01  0.9882E+01  0.9878E+01
     33.506  0.4144E-01  0.4736E-01  0.9889E+01  0.9886E+01
     33.677  0.3928E-01  0.4486E-01  0.9896E+01  0.9894E+01
     33.847  0.3713E-01  0.4164E-01  0.9903E+01  0.9902E+01
     34.018  0.3498E-01  0.3848E-01  0.9909E+01  0.9908E+01
     34.189  0.3282E-01  0.3570E-01  0.9915E+01  0.9915E+01
     34.359  0.4084E-01  0.3313E-01  0.9920E+01  0.9921E+01
     34.530  0.2931E-01  0.3085E-01  0.9926E+01  0.9926E+01
     34.701  0.2752E-01  0.2871E-01  0.9930E+01  0.9931E+01
     34.871  0.2551E-01  0.2618E-01  0.9935E+01  0.9936E+01
     35.042  0.2399E-01  0.2436E-01  0.9939E+01  0.9940E+01
     35.213  0.2283E-01  0.2307E-01  0.9943E+01  0.9944E+01
     35.384  0.2171E-01  0.2189E-01  0.9947E+01  0.9948E+01
     35.554  0.2063E-01  0.2116E-01  0.9951E+01  0.9952E+01
     35.725  0.2016E-01  0.2001E-01  0.9954E+01  0.9955E+01
     35.896  0.1905E-01  0.1892E-01  0.9957E+01  0.9959E+01
     36.066  0.1801E-01  0.1732E-01  0.9961E+01  0.9962E+01
     36.237  0.1634E-01  0.1643E-01  0.9963E+01  0.9965E+01
     36.408  0.1549E-01  0.1553E-01  0.9966E+01  0.9967E+01
     36.579  0.1466E-01  0.1466E-01  0.9969E+01  0.9970E+01
     36.749  0.1385E-01  0.1380E-01  0.9971E+01  0.9972E+01
     36.920  0.1307E-01  0.1297E-01  0.9974E+01  0.9975E+01
     37.091  0.1230E-01  0.1217E-01  0.9976E+01  0.9977E+01
     37.261  0.1156E-01  0.1138E-01  0.9978E+01  0.9979E+01
     37.432  0.1086E-01  0.1070E-01  0.9980E+01  0.9981E+01
     37.603  0.1025E-01  0.1017E-01  0.9981E+01  0.9983E+01
     37.773  0.9751E-02  0.9648E-02  0.9983E+01  0.9984E+01
     37.944  0.9166E-02  0.8936E-02  0.9985E+01  0.9986E+01
     38.115  0.8550E-02  0.8219E-02  0.9986E+01  0.9987E+01
     38.286  0.7915E-02  0.7499E-02  0.9988E+01  0.9989E+01
     38.456  0.7260E-02  0.6776E-02  0.9989E+01  0.9990E+01
     38.627  0.6586E-02  0.6196E-02  0.9990E+01  0.9991E+01
     38.798  0.6029E-02  0.5729E-02  0.9991E+01  0.9992E+01
     38.968  0.5584E-02  0.5293E-02  0.9992E+01  0.9993E+01
     39.139  0.5160E-02  0.4871E-02  0.9993E+01  0.9994E+01
     39.310  0.4749E-02  0.4465E-02  0.9994E+01  0.9995E+01
     39.480  0.4353E-02  0.4074E-02  0.9995E+01  0.9995E+01
     39.651  0.3971E-02  0.3697E-02  0.9995E+01  0.9996E+01
     39.822  0.3604E-02  0.3336E-02  0.9996E+01  0.9997E+01
     39.993  0.3250E-02  0.2990E-02  0.9997E+01  0.9997E+01
     40.163  0.2910E-02  0.2658E-02  0.9997E+01  0.9998E+01
     40.334  0.2585E-02  0.2342E-02  0.9998E+01  0.9998E+01
     40.505  0.2274E-02  0.2179E-02  0.9998E+01  0.9999E+01
     40.675  0.1417E-02  0.1340E-02  0.9999E+01  0.9999E+01
     40.846  0.1101E-02  0.1039E-02  0.9999E+01  0.9999E+01
     41.017  0.9778E-03  0.9117E-03  0.9999E+01  0.9999E+01
     41.188  0.8619E-03  0.7927E-03  0.9999E+01  0.9999E+01
     41.358  0.7534E-03  0.6820E-03  0.9999E+01  0.1000E+02
     41.529  0.6521E-03  0.5797E-03  0.1000E+02  0.1000E+02
     41.700  0.5582E-03  0.4856E-03  0.1000E+02  0.1000E+02
     41.870  0.4715E-03  0.3999E-03  0.1000E+02  0.1000E+02
     42.041  0.3922E-03  0.3225E-03  0.1000E+02  0.1000E+02
     42.212  0.3202E-03  0.2534E-03  0.1000E+02  0.1000E+02
     42.382  0.2554E-03  0.1926E-03  0.1000E+02  0.1000E+02
     42.553  0.1980E-03  0.1402E-03  0.1000E+02  0.1000E+02
     42.724  0.1479E-03  0.9603E-04  0.1000E+02  0.1000E+02
     42.895  0.1051E-03  0.6021E-04  0.1000E+02  0.1000E+02
     43.065  0.6953E-04  0.3272E-04  0.1000E+02  0.1000E+02
     43.236  0.4131E-04  0.1355E-04  0.1000E+02  0.1000E+02
     43.407  0.2040E-04  0.2693E-05  0.1000E+02  0.1000E+02
     43.577  0.6790E-05  0.0000E+00  0.1000E+02  0.1000E+02
     43.748  0.4829E-06  0.0000E+00  0.1000E+02  0.1000E+02
     43.919  0.0000E+00  0.0000E+00  0.1000E+02  0.1000E+02
     44.089  0.0000E+00  0.0000E+00  0.1000E+02  0.1000E+02
     44.260  0.0000E+00  0.0000E+00  0.1000E+02  0.1000E+02
     44.431  0.0000E+00  0.0000E+00  0.1000E+02  0.1000E+02
     44.602  0.0000E+00  0.0000E+00  0.1000E+02  0.1000E+02
     44.772  0.0000E+00  0.0000E+00  0.1000E+02  0.1000E+02
     44.943  0.0000E+00  0.0000E+00  0.1000E+02  0.1000E+02
     45.114  0.0000E+00  0.0000E+00  0.1000E+02  0.1000E+02
     45.284  0.0000E+00  0.0000E+00  0.1000E+02  0.1000E+02
     45.455  0.0000E+00  0.0000E+00  0.1000E+02  0.1000E+02
     45.626  0.0000E+00  0.0000E+00  0.1000E+02  0.1000E+02
     45.797  0.0000E+00  0.0000E+00  0.1000E+02  0.1000E+02
     45.967  0.0000E+00  0.0000E+00  0.1000E+02  0.1000E+02
     46.138  0.0000E+00  0.0000E+00  0.1000E+02  0.1000E+02
     46.13792975     -5.07323380  301      5.38157468      1.00000000
     -5.073  0.0000E+00  0.0000E+00  0.0000E+00  0.0000E+00  0.0000E+00  0.0000E+00  0.0000E+00  0.0000E+00  0.0000E+00  0.0000E+00  0.0000E+00  0.0000E+00  0.0000E+00  0.0000E+00  0.0000E+00  0.0000E+00  0.0000E+00  0.0000E+00
     -4.903  0.0000E+00  0.0000E+00  0.0000E+00  0.0000E+00  0.0000E+00  0.0000E+00  0.0000E+00  0.0000E+00  0.0000E+00  0.0000E+00  0.0000E+00  0.0000E+00  0.0000E+00  0.0000E+00  0.0000E+00  0.0000E+00  0.0000E+00  0.0000E+00
     -4.732  0.0000E+00  0.0000E+00  0.0000E+00  0.0000E+00  0.0000E+00  0.0000E+00  0.0000E+00  0.0000E+00  0.0000E+00  0.0000E+00  0.0000E+00  0.0000E+00  0.0000E+00  0.0000E+00  0.0000E+00  0.0000E+00  0.0000E+00  0.0000E+00
     -4.561  0.0000E+00  0.0000E+00  0.0000E+00  0.0000E+00  0.0000E+00  0.0000E+00  0.0000E+00  0.0000E+00  0.0000E+00  0.0000E+00  0.0000E+00  0.0000E+00  0.0000E+00  0.0000E+00  0.0000E+00  0.0000E+00  0.0000E+00  0.0000E+00
     -4.390  0.0000E+00  0.0000E+00  0.0000E+00  0.0000E+00  0.0000E+00  0.0000E+00  0.0000E+00  0.0000E+00  0.0000E+00  0.0000E+00  0.0000E+00  0.0000E+00  0.0000E+00  0.0000E+00  0.0000E+00  0.0000E+00  0.0000E+00  0.0000E+00
     -4.220  0.0000E+00  0.0000E+00  0.0000E+00  0.0000E+00  0.0000E+00  0.0000E+00  0.0000E+00  0.0000E+00  0.0000E+00  0.0000E+00  0.0000E+00  0.0000E+00  0.0000E+00  0.0000E+00  0.0000E+00  0.0000E+00  0.0000E+00  0.0000E+00
     -4.049  0.0000E+00  0.0000E+00  0.0000E+00  0.0000E+00  0.0000E+00  0.0000E+00  0.0000E+00  0.0000E+00  0.0000E+00  0.0000E+00  0.0000E+00  0.0000E+00  0.0000E+00  0.0000E+00  0.0000E+00  0.0000E+00  0.0000E+00  0.0000E+00
     -3.878  0.0000E+00  0.0000E+00  0.0000E+00  0.0000E+00  0.0000E+00  0.0000E+00  0.0000E+00  0.0000E+00  0.0000E+00  0.0000E+00  0.0000E+00  0.0000E+00  0.0000E+00  0.0000E+00  0.0000E+00  0.0000E+00  0.0000E+00  0.0000E+00
     -3.708  0.0000E+00  0.0000E+00  0.0000E+00  0.0000E+00  0.0000E+00  0.0000E+00  0.0000E+00  0.0000E+00  0.0000E+00  0.0000E+00  0.0000E+00  0.0000E+00  0.0000E+00  0.0000E+00  0.0000E+00  0.0000E+00  0.0000E+00  0.0000E+00
     -3.537  0.0000E+00  0.0000E+00  0.0000E+00  0.0000E+00  0.0000E+00  0.0000E+00  0.0000E+00  0.0000E+00  0.0000E+00  0.0000E+00  0.0000E+00  0.0000E+00  0.0000E+00  0.0000E+00  0.0000E+00  0.0000E+00  0.0000E+00  0.0000E+00
     -3.366  0.0000E+00  0.0000E+00  0.0000E+00  0.0000E+00  0.0000E+00  0.0000E+00  0.0000E+00  0.0000E+00  0.0000E+00  0.0000E+00  0.0000E+00  0.0000E+00  0.0000E+00  0.0000E+00  0.0000E+00  0.0000E+00  0.0000E+00  0.0000E+00
     -3.195  0.0000E+00  0.0000E+00  0.0000E+00  0.0000E+00  0.0000E+00  0.0000E+00  0.0000E+00  0.0000E+00  0.0000E+00  0.0000E+00  0.0000E+00  0.0000E+00  0.0000E+00  0.0000E+00  0.0000E+00  0.0000E+00  0.0000E+00  0.0000E+00
     -3.025  0.0000E+00  0.0000E+00  0.0000E+00  0.0000E+00  0.0000E+00  0.0000E+00  0.0000E+00  0.0000E+00  0.0000E+00  0.0000E+00  0.0000E+00  0.0000E+00  0.0000E+00  0.0000E+00  0.0000E+00  0.0000E+00  0.0000E+00  0.0000E+00
     -2.854  0.0000E+00  0.0000E+00  0.0000E+00  0.0000E+00  0.0000E+00  0.0000E+00  0.0000E+00  0.0000E+00  0.0000E+00  0.0000E+00  0.0000E+00  0.0000E+00  0.0000E+00  0.0000E+00  0.0000E+00  0.0000E+00  0.0000E+00  0.0000E+00
     -2.683  0.1171E-02  0.0000E+00  0.6661E-05  0.0000E+00  0.5289E-05  0.0000E+00  0.4466E-05  0.0000E+00  0.9307E-07  0.0000E+00  0.9820E-07  0.0000E+00  0.6308E-07  0.0000E+00  0.6072E-07  0.0000E+00  0.6586E-07  0.0000E+00
     -2.513  0.9181E-02  0.3109E-02  0.9560E-04  0.1781E-04  0.8656E-04  0.1415E-04  0.7802E-04  0.1194E-04  0.2238E-05  0.1691E-06  0.2716E-05  0.1763E-06  0.2126E-05  0.1149E-06  0.1999E-05  0.1095E-06  0.2424E-05  0.1192E-06
     -2.342  0.1436E-01  0.1014E-01  0.2141E-03  0.1192E-03  0.1943E-03  0.1079E-03  0.1919E-03  0.9911E-04  0.7009E-05  0.2059E-05  0.8323E-05  0.2451E-05  0.6964E-05  0.1961E-05  0.6555E-05  0.1814E-05  0.7971E-05  0.2258E-05
     -2.171  0.1704E-01  0.1504E-01  0.3704E-03  0.2411E-03  0.3514E-03  0.2246E-03  0.3431E-03  0.2181E-03  0.1825E-04  0.5490E-05  0.2120E-04  0.6590E-05  0.1926E-04  0.5576E-05  0.1743E-04  0.5399E-05  0.2138E-04  0.6120E-05
     -2.001  0.1999E-01  0.1718E-01  0.5494E-03  0.4003E-03  0.5166E-03  0.3823E-03  0.5119E-03  0.3685E-03  0.3451E-04  0.1333E-04  0.4029E-04  0.1562E-04  0.3574E-04  0.1413E-04  0.3262E-04  0.1287E-04  0.4226E-04  0.1574E-04
     -1.830  0.2277E-01  0.1976E-01  0.7489E-03  0.5793E-03  0.7169E-03  0.5546E-03  0.7254E-03  0.5422E-03  0.6086E-04  0.2446E-04  0.6832E-04  0.2824E-04  0.6399E-04  0.2567E-04  0.5913E-04  0.2368E-04  0.6861E-04  0.2893E-04
     -1.659  0.2450E-01  0.2269E-01  0.9860E-03  0.7795E-03  0.9553E-03  0.7479E-03  0.9491E-03  0.7574E-03  0.1011E-03  0.4080E-04  0.1140E-03  0.4510E-04  0.1073E-03  0.4284E-04  0.9792E-04  0.3951E-04  0.1187E-03  0.4524E-04
     -1.488  0.2673E-01  0.2408E-01  0.1238E-02  0.1011E-02  0.1193E-02  0.9793E-03  0.1194E-02  0.9724E-03  0.1523E-03  0.6501E-04  0.1736E-03  0.7243E-04  0.1622E-03  0.6890E-04  0.1482E-03  0.6257E-04  0.1846E-03  0.7526E-04
     -1.318  0.2837E-01  0.2603E-01  0.1503E-02  0.1254E-02  0.1481E-02  0.1211E-02  0.1450E-02  0.1209E-02  0.2196E-03  0.9380E-04  0.2580E-03  0.1056E-03  0.2392E-03  0.9971E-04  0.2272E-03  0.9106E-04  0.2666E-03  0.1115E-03
     -1.147  0.3097E-01  0.2741E-01  0.1812E-02  0.1505E-02  0.1769E-02  0.1483E-02  0.1792E-02  0.1453E-02  0.3273E-03  0.1307E-03  0.3602E-03  0.1502E-03  0.3477E-03  0.1415E-03  0.3225E-03  0.1332E-03  0.3678E-03  0.1544E-03
     -0.976  0.3252E-01  0.2969E-01  0.2147E-02  0.1797E-02  0.2106E-02  0.1752E-02  0.2101E-02  0.1778E-02  0.4499E-03  0.1865E-03  0.5130E-03  0.2010E-03  0.4908E-03  0.1965E-03  0.4541E-03  0.1810E-03  0.5418E-03  0.2052E-03
     -0.806  0.3440E-01  0.3080E-01  0.2531E-02  0.2103E-02  0.2481E-02  0.2062E-02  0.2481E-02  0.2057E-02  0.6439E-03  0.2458E-03  0.7271E-03  0.2744E-03  0.6887E-03  0.2654E-03  0.6462E-03  0.2442E-03  0.7732E-03  0.2878E-03
     -0.635  0.3628E-01  0.3213E-01  0.2924E-02  0.2444E-02  0.2891E-02  0.2398E-02  0.2876E-02  0.2391E-02  0.8827E-03  0.3316E-03  0.1007E-02  0.3685E-03  0.9533E-03  0.3536E-03  0.9094E-03  0.3286E-03  0.1056E-02  0.3886E-03
     -0.464  0.3839E-01  0.3346E-01  0.3335E-02  0.2788E-02  0.3317E-02  0.2751E-02  0.3291E-02  0.2737E-02  0.1176E-02  0.4335E-03  0.1358E-02  0.4821E-03  0.1292E-02  0.4637E-03  0.1237E-02  0.4356E-03  0.1402E-02  0.5037E-03
     -0.294  0.4097E-01  0.3484E-01  0.3843E-02  0.3138E-02  0.3780E-02  0.3113E-02  0.3830E-02  0.3087E-02  0.1659E-02  0.5465E-03  0.1826E-02  0.6151E-03  0.1783E-02  0.5922E-03  0.1662E-02  0.5605E-03  0.1921E-02  0.6344E-03
     -0.123  0.4312E-01  0.3651E-01  0.4408E-02  0.3539E-02  0.4368E-02  0.3487E-02  0.4365E-02  0.3512E-02  0.2237E-02  0.7103E-03  0.2561E-02  0.7732E-03  0.2460E-02  0.7571E-03  0.2336E-02  0.7062E-03  0.2723E-02  0.8027E-03
      0.048  0.4611E-01  0.3778E-01  0.5068E-02  0.3990E-02  0.5035E-02  0.3916E-02  0.5039E-02  0.3955E-02  0.3224E-02  0.9139E-03  0.3643E-02  0.9921E-03  0.3478E-02  0.9711E-03  0.3361E-02  0.8992E-03  0.3854E-02  0.1049E-02
      0.219  0.4941E-01  0.3867E-01  0.5758E-02  0.4421E-02  0.5755E-02  0.4399E-02  0.5725E-02  0.4357E-02  0.4454E-02  0.1127E-02  0.5133E-02  0.1276E-02  0.4903E-02  0.1226E-02  0.4764E-02  0.1169E-02  0.5366E-02  0.1336E-02
      0.389  0.5409E-01  0.4011E-01  0.6569E-02  0.4908E-02  0.6551E-02  0.4878E-02  0.6588E-02  0.4859E-02  0.6553E-02  0.1456E-02  0.7301E-02  0.1613E-02  0.7157E-02  0.1558E-02  0.6805E-02  0.1486E-02  0.7568E-02  0.1687E-02
      0.560  0.6065E-01  0.4160E-01  0.7830E-02  0.5401E-02  0.7816E-02  0.5366E-02  0.7846E-02  0.5367E-02  0.9920E-02  0.1830E-02  0.1164E-01  0.2013E-02  0.1135E-01  0.1958E-02  0.1090E-01  0.1860E-02  0.1237E-01  0.2092E-02
      0.731  0.8036E-01  0.4324E-01  0.9838E-02  0.5908E-02  0.9846E-02  0.5862E-02  0.9857E-02  0.5892E-02  0.2364E-01  0.2243E-02  0.3028E-01  0.2483E-02  0.2627E-01  0.2430E-02  0.2845E-01  0.2299E-02  0.3147E-01  0.2562E-02
      0.901  0.9447E-01  0.4472E-01  0.1113E-01  0.6543E-02  0.1121E-01  0.6492E-02  0.1117E-01  0.6534E-02  0.5289E-01  0.2903E-02  0.5415E-01  0.3170E-02  0.5446E-01  0.3103E-02  0.5217E-01  0.2943E-02  0.5622E-01  0.3323E-02
      1.072  0.8611E-01  0.4622E-01  0.1268E-01  0.7203E-02  0.1274E-01  0.7193E-02  0.1279E-01  0.7183E-02  0.8987E-01  0.3706E-02  0.7471E-01  0.4095E-02  0.6911E-01  0.4000E-02  0.9018E-01  0.3820E-02  0.6370E-01  0.4300E-02
      1.243  0.8092E-01  0.4786E-01  0.1534E-01  0.7850E-02  0.1496E-01  0.7871E-02  0.1534E-01  0.7798E-02  0.1208E+00  0.4555E-02  0.9469E-01  0.5271E-02  0.8950E-01  0.5029E-02  0.1208E+00  0.4922E-02  0.7623E-01  0.5503E-02
      1.414  0.7639E-01  0.5042E-01  0.2066E-01  0.8592E-02  0.2006E-01  0.8574E-02  0.2031E-01  0.8581E-02  0.1774E+00  0.6149E-02  0.1306E+00  0.6810E-02  0.1130E+00  0.6646E-02  0.1826E+00  0.6355E-02  0.9167E-01  0.7118E-02
      1.584  0.5210E-01  0.5317E-01  0.1668E-01  0.9326E-02  0.1748E-01  0.9328E-02  0.1722E-01  0.9346E-02  0.1623E+00  0.7896E-02  0.1234E+00  0.8840E-02  0.1147E+00  0.8668E-02  0.1603E+00  0.8278E-02  0.9747E-01  0.9148E-02
      1.755  0.2920E-01  0.5706E-01  0.1084E-01  0.1036E-01  0.1093E-01  0.1039E-01  0.1096E-01  0.1047E-01  0.1137E+00  0.1115E-01  0.1022E+00  0.1203E-01  0.1004E+00  0.1211E-01  0.1092E+00  0.1136E-01  0.9993E-01  0.1262E-01
      1.926  0.7680E-02  0.6378E-01  0.6979E-02  0.1156E-01  0.7098E-02  0.1159E-01  0.6933E-02  0.1159E-01  0.7345E-01  0.1663E-01  0.5769E-01  0.1916E-01  0.5478E-01  0.1857E-01  0.7203E-01  0.1789E-01  0.4618E-01  0.2029E-01
      2.096  0.1531E-02  0.8187E-01  0.8614E-02  0.1260E-01  0.8320E-02  0.1271E-01  0.8846E-02  0.1269E-01  0.9003E-01  0.3492E-01  0.8552E-01  0.3559E-01  0.8371E-01  0.3824E-01  0.8815E-01  0.3306E-01  0.1118E+00  0.3809E-01
      2.267  0.3247E-02  0.7325E-01  0.2939E-01  0.1306E-01  0.2917E-01  0.1316E-01  0.2977E-01  0.1315E-01  0.2934E+00  0.3427E-01  0.3628E+00  0.3581E-01  0.3901E+00  0.3691E-01  0.2922E+00  0.3394E-01  0.4193E+00  0.3751E-01
      2.438  0.4994E-02  0.6655E-01  0.1235E-01  0.1380E-01  0.1224E-01  0.1398E-01  0.1221E-01  0.1396E-01  0.1681E+00  0.3719E-01  0.2054E+00  0.3813E-01  0.2181E+00  0.3810E-01  0.1631E+00  0.3744E-01  0.2346E+00  0.3892E-01
      2.608  0.9275E-02  0.6042E-01  0.1844E-01  0.1465E-01  0.1854E-01  0.1445E-01  0.1780E-01  0.1473E-01  0.1576E+00  0.4124E-01  0.1950E+00  0.4135E-01  0.2166E+00  0.4214E-01  0.1518E+00  0.4096E-01  0.2415E+00  0.4246E-01
      2.779  0.1381E-01  0.5334E-01  0.2680E-01  0.1605E-01  0.2526E-01  0.1588E-01  0.2617E-01  0.1600E-01  0.1413E+00  0.7186E-01  0.1886E+00  0.5689E-01  0.2168E+00  0.5315E-01  0.1357E+00  0.7133E-01  0.2357E+00  0.4650E-01
      2.950  0.2236E-01  0.4865E-01  0.3819E-01  0.2019E-01  0.4078E-01  0.2064E-01  0.3874E-01  0.2052E-01  0.2231E+00  0.1132E+00  0.3058E+00  0.8239E-01  0.3228E+00  0.7118E-01  0.2419E+00  0.1195E+00  0.3626E+00  0.5429E-01
      3.121  0.1560E-01  0.3764E-01  0.2710E-01  0.1827E-01  0.2655E-01  0.1860E-01  0.2708E-01  0.1874E-01  0.1781E+00  0.1192E+00  0.2569E+00  0.9026E-01  0.2646E+00  0.7441E-01  0.1788E+00  0.1284E+00  0.3180E+00  0.6073E-01
      3.291  0.1039E-01  0.2140E-01  0.1791E-01  0.1178E-01  0.1783E-01  0.1199E-01  0.1783E-01  0.1194E-01  0.7511E-01  0.7835E-01  0.9240E-01  0.6193E-01  0.9687E-01  0.5961E-01  0.7405E-01  0.7592E-01  0.1061E+00  0.5222E-01
      3.462  0.7926E-02  0.1058E-01  0.1389E-01  0.9922E-02  0.1379E-01  0.9358E-02  0.1408E-01  0.9808E-02  0.6018E-01  0.6660E-01  0.7594E-01  0.5018E-01  0.7810E-01  0.4707E-01  0.6123E-01  0.6284E-01  0.8503E-01  0.3884E-01