 vasp.5.4.4.18Apr17-6-g9f103f2a35 (build Sep 06 2021 19:49:22) complex          
  
 executed on             LinuxIFC date 2021.12.23  23:22:26
 running on    1 total cores
 distrk:  each k-point on    1 cores,    1 groups
 distr:  one band on NCORES_PER_BAND=   1 cores,    1 groups


--------------------------------------------------------------------------------------------------------


 INCAR:
 POTCAR:    PAW_PBE Fe 06Sep2000                  
 POTCAR:    PAW_PBE Fe 06Sep2000                  
   VRHFIN =Fe:  d7 s1                                                           
   LEXCH  = PE                                                                  
   EATOM  =   594.3153 eV,   43.6809 Ry                                         
                                                                                
   TITEL  = PAW_PBE Fe 06Sep2000                                                
   LULTRA =        F    use ultrasoft PP ?                                      
   IUNSCR =        1    unscreen: 0-lin 1-nonlin 2-no                           
   RPACOR =    2.000    partial core radius                                     
   POMASS =   55.847; ZVAL   =    8.000    mass and valenz                      
   RCORE  =    2.300    outmost cutoff radius                                   
   RWIGS  =    2.460; RWIGS  =    1.302    wigner-seitz radius (au A)           
   ENMAX  =  267.882; ENMIN  =  200.911 eV                                      
   RCLOC  =    1.701    cutoff for local pot                                    
   LCOR   =        T    correct aug charges                                     
   LPAW   =        T    paw PP                                                  
   EAUG   =  511.368                                                            
   DEXC   =    0.000                                                            
   RMAX   =    2.356    core radius for proj-oper                               
   RAUG   =    1.300    factor for augmentation sphere                          
   RDEP   =    2.442    radius for radial grids                                 
   RDEPT  =    1.890    core radius for aug-charge                              
                                                                                
   Atomic configuration                                                         
    9 entries                                                                   
     n  l   j            E        occ.                                          
     1  0  0.50     -6993.8440   2.0000                                         
     2  0  0.50      -814.6047   2.0000                                         
     2  1  1.50      -693.3689   6.0000                                         
     3  0  0.50       -89.4732   2.0000                                         
     3  1  1.50       -55.6373   6.0000                                         
     3  2  2.50        -3.8151   7.0000                                         
     4  0  0.50        -4.2551   1.0000                                         
     4  1  1.50        -3.4015   0.0000                                         
     4  3  2.50        -1.3606   0.0000                                         
   Description                                                                  
     l       E           TYP  RCUT    TYP  RCUT                                 
     2     -3.8151135     23  2.300                                             
     2     -5.1756961     23  2.300                                             
     0     -4.2550963     23  2.300                                             
     0      7.2035603     23  2.300                                             
     1     -2.7211652     23  2.300                                             
     1     18.4316424     23  2.300                                             
  local pseudopotential read in
  partial core-charges read in
  partial kinetic energy density read in
  atomic valenz-charges read in
  non local Contribution for L=           2  read in
    real space projection operators read in
  non local Contribution for L=           2  read in
    real space projection operators read in
  non local Contribution for L=           0  read in
    real space projection operators read in
  non local Contribution for L=           0  read in
    real space projection operators read in
  non local Contribution for L=           1  read in
    real space projection operators read in
  non local Contribution for L=           1  read in
    real space projection operators read in
    PAW grid and wavefunctions read in
 
   number of l-projection  operators is LMAX  =           6
   number of lm-projection operators is LMMAX =          18
 

 ----------------------------------------------------------------------------- 
|                                                                             |
|  ADVICE TO THIS USER RUNNING 'VASP/VAMP'   (HEAR YOUR MASTER'S VOICE ...):  |
|                                                                             |
|      You have a (more or less) 'small supercell' and for smaller cells      |
|      it is recommended  to use the reciprocal-space projection scheme!      |
|      The real space optimization is not  efficient for small cells and it   |
|      is also less accurate ...                                              |
|      Therefore set LREAL=.FALSE. in the  INCAR file                         |
|                                                                             |
 ----------------------------------------------------------------------------- 

 Optimization of the real space projectors (new method)

 maximal supplied QI-value         = 16.25
 optimisation between [QCUT,QGAM] = [ 11.54, 23.24] = [ 37.28,151.24] Ry 
 Optimized for a Real-space Cutoff    1.53 Angstroem

   l    n(q)    QCUT    max X(q) W(low)/X(q) W(high)/X(q)  e(spline) 
   2     10    11.539    80.901    0.11E-03    0.14E-03    0.21E-06
   2     10    11.539    75.754    0.11E-03    0.14E-03    0.22E-06
   0     11    11.539    58.752    0.52E-04    0.18E-04    0.33E-06
   0     11    11.539    30.679    0.44E-04    0.16E-04    0.30E-06
   1     10    11.539    17.977    0.53E-04    0.29E-04    0.13E-06
   1     10    11.539    13.559    0.44E-04    0.25E-04    0.11E-06
  PAW_PBE Fe 06Sep2000                  :
 energy of atom  1       EATOM= -594.3153
 kinetic energy error for atom=    0.0026 (will be added to EATOM!!)
 
 
 POSCAR: Fe                                      
  positions in direct lattice
  No initial velocities read in
 exchange correlation table for  LEXCH =        8
   RHO(1)=    0.500       N(1)  =     2000
   RHO(2)=  100.500       N(2)  =     4000
 


--------------------------------------------------------------------------------------------------------


 ion  position               nearest neighbor table
   1  0.000  0.000  0.000-
 

IMPORTANT INFORMATION: All symmetrisations will be switched off!
NOSYMM: (Re-)initialisation of all symmetry stuff for point group C_1.

 
 

Automatic generation of k-mesh.
 generate k-points for:   16   16   16
Space group operators:
 irot       det(A)        alpha          n_x          n_y          n_z        tau_x        tau_y        tau_z
    1     1.000000     0.000001     1.000000     0.000000     0.000000     0.000000     0.000000     0.000000
 
 Subroutine IBZKPT returns following result:
 ===========================================
 
 Found   2052 irreducible k-points:
 
 Following reciprocal coordinates:
            Coordinates               Weight
  0.000000  0.000000  0.000000      1.000000
  0.062500  0.000000  0.000000      2.000000
  0.125000  0.000000  0.000000      2.000000
  0.187500  0.000000  0.000000      2.000000
  0.250000  0.000000  0.000000      2.000000
  0.312500  0.000000  0.000000      2.000000
  0.375000  0.000000  0.000000      2.000000
  0.437500  0.000000  0.000000      2.000000
  0.500000  0.000000  0.000000      1.000000
  0.000000  0.062500  0.000000      2.000000
  0.062500  0.062500  0.000000      2.000000
  0.125000  0.062500  0.000000      2.000000
  0.187500  0.062500  0.000000      2.000000
  0.250000  0.062500  0.000000      2.000000
  0.312500  0.062500  0.000000      2.000000
  0.375000  0.062500  0.000000      2.000000
  0.437500  0.062500  0.000000      2.000000
  0.500000  0.062500  0.000000      2.000000
 -0.437500  0.062500  0.000000      2.000000
 -0.375000  0.062500  0.000000      2.000000
 -0.312500  0.062500  0.000000      2.000000
 -0.250000  0.062500  0.000000      2.000000
 -0.187500  0.062500  0.000000      2.000000
 -0.125000  0.062500  0.000000      2.000000
 -0.062500  0.062500  0.000000      2.000000
  0.000000  0.125000  0.000000      2.000000
  0.062500  0.125000  0.000000      2.000000
  0.125000  0.125000  0.000000      2.000000
  0.187500  0.125000  0.000000      2.000000
  0.250000  0.125000  0.000000      2.000000
  0.312500  0.125000  0.000000      2.000000
  0.375000  0.125000  0.000000      2.000000
  0.437500  0.125000  0.000000      2.000000
  0.500000  0.125000  0.000000      2.000000
 -0.437500  0.125000  0.000000      2.000000
 -0.375000  0.125000  0.000000      2.000000
 -0.312500  0.125000  0.000000      2.000000
 -0.250000  0.125000  0.000000      2.000000
 -0.187500  0.125000  0.000000      2.000000
 -0.125000  0.125000  0.000000      2.000000
 -0.062500  0.125000  0.000000      2.000000
  0.000000  0.187500  0.000000      2.000000
  0.062500  0.187500  0.000000      2.000000
  0.125000  0.187500  0.000000      2.000000
  0.187500  0.187500  0.000000      2.000000
  0.250000  0.187500  0.000000      2.000000
  0.312500  0.187500  0.000000      2.000000
  0.375000  0.187500  0.000000      2.000000
  0.437500  0.187500  0.000000      2.000000
  0.500000  0.187500  0.000000      2.000000
 -0.437500  0.187500  0.000000      2.000000
 -0.375000  0.187500  0.000000      2.000000
 -0.312500  0.187500  0.000000      2.000000
 -0.250000  0.187500  0.000000      2.000000
 -0.187500  0.187500  0.000000      2.000000
 -0.125000  0.187500  0.000000      2.000000
 -0.062500  0.187500  0.000000      2.000000
  0.000000  0.250000  0.000000      2.000000
  0.062500  0.250000  0.000000      2.000000
  0.125000  0.250000  0.000000      2.000000
  0.187500  0.250000  0.000000      2.000000
  0.250000  0.250000  0.000000      2.000000
  0.312500  0.250000  0.000000      2.000000
  0.375000  0.250000  0.000000      2.000000
  0.437500  0.250000  0.000000      2.000000
  0.500000  0.250000  0.000000      2.000000
 -0.437500  0.250000  0.000000      2.000000
 -0.375000  0.250000  0.000000      2.000000
 -0.312500  0.250000  0.000000      2.000000
 -0.250000  0.250000  0.000000      2.000000
 -0.187500  0.250000  0.000000      2.000000
 -0.125000  0.250000  0.000000      2.000000
 -0.062500  0.250000  0.000000      2.000000
  0.000000  0.312500  0.000000      2.000000
  0.062500  0.312500  0.000000      2.000000
  0.125000  0.312500  0.000000      2.000000
  0.187500  0.312500  0.000000      2.000000
  0.250000  0.312500  0.000000      2.000000
  0.312500  0.312500  0.000000      2.000000
  0.375000  0.312500  0.000000      2.000000
  0.437500  0.312500  0.000000      2.000000
  0.500000  0.312500  0.000000      2.000000
 -0.437500  0.312500  0.000000      2.000000
 -0.375000  0.312500  0.000000      2.000000
 -0.312500  0.312500  0.000000      2.000000
 -0.250000  0.312500  0.000000      2.000000
 -0.187500  0.312500  0.000000      2.000000
 -0.125000  0.312500  0.000000      2.000000
 -0.062500  0.312500  0.000000      2.000000
  0.000000  0.375000  0.000000      2.000000
  0.062500  0.375000  0.000000      2.000000
  0.125000  0.375000  0.000000      2.000000
  0.187500  0.375000  0.000000      2.000000
  0.250000  0.375000  0.000000      2.000000
  0.312500  0.375000  0.000000      2.000000
  0.375000  0.375000  0.000000      2.000000
  0.437500  0.375000  0.000000      2.000000
  0.500000  0.375000  0.000000      2.000000
 -0.437500  0.375000  0.000000      2.000000
 -0.375000  0.375000  0.000000      2.000000
 -0.312500  0.375000  0.000000      2.000000
 -0.250000  0.375000  0.000000      2.000000
 -0.187500  0.375000  0.000000      2.000000
 -0.125000  0.375000  0.000000      2.000000
 -0.062500  0.375000  0.000000      2.000000
  0.000000  0.437500  0.000000      2.000000
  0.062500  0.437500  0.000000      2.000000
  0.125000  0.437500  0.000000      2.000000
  0.187500  0.437500  0.000000      2.000000
  0.250000  0.437500  0.000000      2.000000
  0.312500  0.437500  0.000000      2.000000
  0.375000  0.437500  0.000000      2.000000
  0.437500  0.437500  0.000000      2.000000
  0.500000  0.437500  0.000000      2.000000
 -0.437500  0.437500  0.000000      2.000000
 -0.375000  0.437500  0.000000      2.000000
 -0.312500  0.437500  0.000000      2.000000
 -0.250000  0.437500  0.000000      2.000000
 -0.187500  0.437500  0.000000      2.000000
 -0.125000  0.437500  0.000000      2.000000
 -0.062500  0.437500  0.000000      2.000000
  0.000000  0.500000  0.000000      1.000000
  0.062500  0.500000  0.000000      2.000000
  0.125000  0.500000  0.000000      2.000000
  0.187500  0.500000  0.000000      2.000000
  0.250000  0.500000  0.000000      2.000000
  0.312500  0.500000  0.000000      2.000000
  0.375000  0.500000  0.000000      2.000000
  0.437500  0.500000  0.000000      2.000000
  0.500000  0.500000  0.000000      1.000000
  0.000000  0.000000  0.062500      2.000000
  0.062500  0.000000  0.062500      2.000000
  0.125000  0.000000  0.062500      2.000000
  0.187500  0.000000  0.062500      2.000000
  0.250000  0.000000  0.062500      2.000000
  0.312500  0.000000  0.062500      2.000000
  0.375000  0.000000  0.062500      2.000000
  0.437500  0.000000  0.062500      2.000000
  0.500000  0.000000  0.062500      2.000000
 -0.437500  0.000000  0.062500      2.000000
 -0.375000  0.000000  0.062500      2.000000
 -0.312500  0.000000  0.062500      2.000000
 -0.250000  0.000000  0.062500      2.000000
 -0.187500  0.000000  0.062500      2.000000
 -0.125000  0.000000  0.062500      2.000000
 -0.062500  0.000000  0.062500      2.000000
  0.000000  0.062500  0.062500      2.000000
  0.062500  0.062500  0.062500      2.000000
  0.125000  0.062500  0.062500      2.000000
  0.187500  0.062500  0.062500      2.000000
  0.250000  0.062500  0.062500      2.000000
  0.312500  0.062500  0.062500      2.000000
  0.375000  0.062500  0.062500      2.000000
  0.437500  0.062500  0.062500      2.000000
  0.500000  0.062500  0.062500      2.000000
 -0.437500  0.062500  0.062500      2.000000
 -0.375000  0.062500  0.062500      2.000000
 -0.312500  0.062500  0.062500      2.000000
 -0.250000  0.062500  0.062500      2.000000
 -0.187500  0.062500  0.062500      2.000000
 -0.125000  0.062500  0.062500      2.000000
 -0.062500  0.062500  0.062500      2.000000
  0.000000  0.125000  0.062500      2.000000
  0.062500  0.125000  0.062500      2.000000
  0.125000  0.125000  0.062500      2.000000
  0.187500  0.125000  0.062500      2.000000
  0.250000  0.125000  0.062500      2.000000
  0.312500  0.125000  0.062500      2.000000
  0.375000  0.125000  0.062500      2.000000
  0.437500  0.125000  0.062500      2.000000
  0.500000  0.125000  0.062500      2.000000
 -0.437500  0.125000  0.062500      2.000000
 -0.375000  0.125000  0.062500      2.000000
 -0.312500  0.125000  0.062500      2.000000
 -0.250000  0.125000  0.062500      2.000000
 -0.187500  0.125000  0.062500      2.000000
 -0.125000  0.125000  0.062500      2.000000
 -0.062500  0.125000  0.062500      2.000000
  0.000000  0.187500  0.062500      2.000000
  0.062500  0.187500  0.062500      2.000000
  0.125000  0.187500  0.062500      2.000000
  0.187500  0.187500  0.062500      2.000000
  0.250000  0.187500  0.062500      2.000000
  0.312500  0.187500  0.062500      2.000000
  0.375000  0.187500  0.062500      2.000000
  0.437500  0.187500  0.062500      2.000000
  0.500000  0.187500  0.062500      2.000000
 -0.437500  0.187500  0.062500      2.000000
 -0.375000  0.187500  0.062500      2.000000
 -0.312500  0.187500  0.062500      2.000000
 -0.250000  0.187500  0.062500      2.000000
 -0.187500  0.187500  0.062500      2.000000
 -0.125000  0.187500  0.062500      2.000000
 -0.062500  0.187500  0.062500      2.000000
  0.000000  0.250000  0.062500      2.000000
  0.062500  0.250000  0.062500      2.000000
  0.125000  0.250000  0.062500      2.000000
  0.187500  0.250000  0.062500      2.000000
  0.250000  0.250000  0.062500      2.000000
  0.312500  0.250000  0.062500      2.000000
  0.375000  0.250000  0.062500      2.000000
  0.437500  0.250000  0.062500      2.000000
  0.500000  0.250000  0.062500      2.000000
 -0.437500  0.250000  0.062500      2.000000
 -0.375000  0.250000  0.062500      2.000000
 -0.312500  0.250000  0.062500      2.000000
 -0.250000  0.250000  0.062500      2.000000
 -0.187500  0.250000  0.062500      2.000000
 -0.125000  0.250000  0.062500      2.000000
 -0.062500  0.250000  0.062500      2.000000
  0.000000  0.312500  0.062500      2.000000
  0.062500  0.312500  0.062500      2.000000
  0.125000  0.312500  0.062500      2.000000
  0.187500  0.312500  0.062500      2.000000
  0.250000  0.312500  0.062500      2.000000
  0.312500  0.312500  0.062500      2.000000
  0.375000  0.312500  0.062500      2.000000
  0.437500  0.312500  0.062500      2.000000
  0.500000  0.312500  0.062500      2.000000
 -0.437500  0.312500  0.062500      2.000000
 -0.375000  0.312500  0.062500      2.000000
 -0.312500  0.312500  0.062500      2.000000
 -0.250000  0.312500  0.062500      2.000000
 -0.187500  0.312500  0.062500      2.000000
 -0.125000  0.312500  0.062500      2.000000
 -0.062500  0.312500  0.062500      2.000000
  0.000000  0.375000  0.062500      2.000000
  0.062500  0.375000  0.062500      2.000000
  0.125000  0.375000  0.062500      2.000000
  0.187500  0.375000  0.062500      2.000000
  0.250000  0.375000  0.062500      2.000000
  0.312500  0.375000  0.062500      2.000000
  0.375000  0.375000  0.062500      2.000000
  0.437500  0.375000  0.062500      2.000000
  0.500000  0.375000  0.062500      2.000000
 -0.437500  0.375000  0.062500      2.000000
 -0.375000  0.375000  0.062500      2.000000
 -0.312500  0.375000  0.062500      2.000000
 -0.250000  0.375000  0.062500      2.000000
 -0.187500  0.375000  0.062500      2.000000
 -0.125000  0.375000  0.062500      2.000000
 -0.062500  0.375000  0.062500      2.000000
  0.000000  0.437500  0.062500      2.000000
  0.062500  0.437500  0.062500      2.000000
  0.125000  0.437500  0.062500      2.000000
  0.187500  0.437500  0.062500      2.000000
  0.250000  0.437500  0.062500      2.000000
  0.312500  0.437500  0.062500      2.000000
  0.375000  0.437500  0.062500      2.000000
  0.437500  0.437500  0.062500      2.000000
  0.500000  0.437500  0.062500      2.000000
 -0.437500  0.437500  0.062500      2.000000
 -0.375000  0.437500  0.062500      2.000000
 -0.312500  0.437500  0.062500      2.000000
 -0.250000  0.437500  0.062500      2.000000
 -0.187500  0.437500  0.062500      2.000000
 -0.125000  0.437500  0.062500      2.000000
 -0.062500  0.437500  0.062500      2.000000
  0.000000  0.500000  0.062500      2.000000
  0.062500  0.500000  0.062500      2.000000
  0.125000  0.500000  0.062500      2.000000
  0.187500  0.500000  0.062500      2.000000
  0.250000  0.500000  0.062500      2.000000
  0.312500  0.500000  0.062500      2.000000
  0.375000  0.500000  0.062500      2.000000
  0.437500  0.500000  0.062500      2.000000
  0.500000  0.500000  0.062500      2.000000
 -0.437500  0.500000  0.062500      2.000000
 -0.375000  0.500000  0.062500      2.000000
 -0.312500  0.500000  0.062500      2.000000
 -0.250000  0.500000  0.062500      2.000000
 -0.187500  0.500000  0.062500      2.000000
 -0.125000  0.500000  0.062500      2.000000
 -0.062500  0.500000  0.062500      2.000000
  0.000000 -0.437500  0.062500      2.000000
  0.062500 -0.437500  0.062500      2.000000
  0.125000 -0.437500  0.062500      2.000000
  0.187500 -0.437500  0.062500      2.000000
  0.250000 -0.437500  0.062500      2.000000
  0.312500 -0.437500  0.062500      2.000000
  0.375000 -0.437500  0.062500      2.000000
  0.437500 -0.437500  0.062500      2.000000
  0.500000 -0.437500  0.062500      2.000000
 -0.437500 -0.437500  0.062500      2.000000
 -0.375000 -0.437500  0.062500      2.000000
 -0.312500 -0.437500  0.062500      2.000000
 -0.250000 -0.437500  0.062500      2.000000
 -0.187500 -0.437500  0.062500      2.000000
 -0.125000 -0.437500  0.062500      2.000000
 -0.062500 -0.437500  0.062500      2.000000
  0.000000 -0.375000  0.062500      2.000000
  0.062500 -0.375000  0.062500      2.000000
  0.125000 -0.375000  0.062500      2.000000
  0.187500 -0.375000  0.062500      2.000000
  0.250000 -0.375000  0.062500      2.000000
  0.312500 -0.375000  0.062500      2.000000
  0.375000 -0.375000  0.062500      2.000000
  0.437500 -0.375000  0.062500      2.000000
  0.500000 -0.375000  0.062500      2.000000
 -0.437500 -0.375000  0.062500      2.000000
 -0.375000 -0.375000  0.062500      2.000000
 -0.312500 -0.375000  0.062500      2.000000
 -0.250000 -0.375000  0.062500      2.000000
 -0.187500 -0.375000  0.062500      2.000000
 -0.125000 -0.375000  0.062500      2.000000
 -0.062500 -0.375000  0.062500      2.000000
  0.000000 -0.312500  0.062500      2.000000
  0.062500 -0.312500  0.062500      2.000000
  0.125000 -0.312500  0.062500      2.000000
  0.187500 -0.312500  0.062500      2.000000
  0.250000 -0.312500  0.062500      2.000000
  0.312500 -0.312500  0.062500      2.000000
  0.375000 -0.312500  0.062500      2.000000
  0.437500 -0.312500  0.062500      2.000000
  0.500000 -0.312500  0.062500      2.000000
 -0.437500 -0.312500  0.062500      2.000000
 -0.375000 -0.312500  0.062500      2.000000
 -0.312500 -0.312500  0.062500      2.000000
 -0.250000 -0.312500  0.062500      2.000000
 -0.187500 -0.312500  0.062500      2.000000
 -0.125000 -0.312500  0.062500      2.000000
 -0.062500 -0.312500  0.062500      2.000000
  0.000000 -0.250000  0.062500      2.000000
  0.062500 -0.250000  0.062500      2.000000
  0.125000 -0.250000  0.062500      2.000000
  0.187500 -0.250000  0.062500      2.000000
  0.250000 -0.250000  0.062500      2.000000
  0.312500 -0.250000  0.062500      2.000000
  0.375000 -0.250000  0.062500      2.000000
  0.437500 -0.250000  0.062500      2.000000
  0.500000 -0.250000  0.062500      2.000000
 -0.437500 -0.250000  0.062500      2.000000
 -0.375000 -0.250000  0.062500      2.000000
 -0.312500 -0.250000  0.062500      2.000000
 -0.250000 -0.250000  0.062500      2.000000
 -0.187500 -0.250000  0.062500      2.000000
 -0.125000 -0.250000  0.062500      2.000000
 -0.062500 -0.250000  0.062500      2.000000
  0.000000 -0.187500  0.062500      2.000000
  0.062500 -0.187500  0.062500      2.000000
  0.125000 -0.187500  0.062500      2.000000
  0.187500 -0.187500  0.062500      2.000000
  0.250000 -0.187500  0.062500      2.000000
  0.312500 -0.187500  0.062500      2.000000
  0.375000 -0.187500  0.062500      2.000000
  0.437500 -0.187500  0.062500      2.000000
  0.500000 -0.187500  0.062500      2.000000
 -0.437500 -0.187500  0.062500      2.000000
 -0.375000 -0.187500  0.062500      2.000000
 -0.312500 -0.187500  0.062500      2.000000
 -0.250000 -0.187500  0.062500      2.000000
 -0.187500 -0.187500  0.062500      2.000000
 -0.125000 -0.187500  0.062500      2.000000
 -0.062500 -0.187500  0.062500      2.000000
  0.000000 -0.125000  0.062500      2.000000
  0.062500 -0.125000  0.062500      2.000000
  0.125000 -0.125000  0.062500      2.000000
  0.187500 -0.125000  0.062500      2.000000
  0.250000 -0.125000  0.062500      2.000000
  0.312500 -0.125000  0.062500      2.000000
  0.375000 -0.125000  0.062500      2.000000
  0.437500 -0.125000  0.062500      2.000000
  0.500000 -0.125000  0.062500      2.000000
 -0.437500 -0.125000  0.062500      2.000000
 -0.375000 -0.125000  0.062500      2.000000
 -0.312500 -0.125000  0.062500      2.000000
 -0.250000 -0.125000  0.062500      2.000000
 -0.187500 -0.125000  0.062500      2.000000
 -0.125000 -0.125000  0.062500      2.000000
 -0.062500 -0.125000  0.062500      2.000000
  0.000000 -0.062500  0.062500      2.000000
  0.062500 -0.062500  0.062500      2.000000
  0.125000 -0.062500  0.062500      2.000000
  0.187500 -0.062500  0.062500      2.000000
  0.250000 -0.062500  0.062500      2.000000
  0.312500 -0.062500  0.062500      2.000000
  0.375000 -0.062500  0.062500      2.000000
  0.437500 -0.062500  0.062500      2.000000
  0.500000 -0.062500  0.062500      2.000000
 -0.437500 -0.062500  0.062500      2.000000
 -0.375000 -0.062500  0.062500      2.000000
 -0.312500 -0.062500  0.062500      2.000000
 -0.250000 -0.062500  0.062500      2.000000
 -0.187500 -0.062500  0.062500      2.000000
 -0.125000 -0.062500  0.062500      2.000000
 -0.062500 -0.062500  0.062500      2.000000
  0.000000  0.000000  0.125000      2.000000
  0.062500  0.000000  0.125000      2.000000
  0.125000  0.000000  0.125000      2.000000
  0.187500  0.000000  0.125000      2.000000
  0.250000  0.000000  0.125000      2.000000
  0.312500  0.000000  0.125000      2.000000
  0.375000  0.000000  0.125000      2.000000
  0.437500  0.000000  0.125000      2.000000
  0.500000  0.000000  0.125000      2.000000
 -0.437500  0.000000  0.125000      2.000000
 -0.375000  0.000000  0.125000      2.000000
 -0.312500  0.000000  0.125000      2.000000
 -0.250000  0.000000  0.125000      2.000000
 -0.187500  0.000000  0.125000      2.000000
 -0.125000  0.000000  0.125000      2.000000
 -0.062500  0.000000  0.125000      2.000000
  0.000000  0.062500  0.125000      2.000000
  0.062500  0.062500  0.125000      2.000000
  0.125000  0.062500  0.125000      2.000000
  0.187500  0.062500  0.125000      2.000000
  0.250000  0.062500  0.125000      2.000000
  0.312500  0.062500  0.125000      2.000000
  0.375000  0.062500  0.125000      2.000000
  0.437500  0.062500  0.125000      2.000000
  0.500000  0.062500  0.125000      2.000000
 -0.437500  0.062500  0.125000      2.000000
 -0.375000  0.062500  0.125000      2.000000
 -0.312500  0.062500  0.125000      2.000000
 -0.250000  0.062500  0.125000      2.000000
 -0.187500  0.062500  0.125000      2.000000
 -0.125000  0.062500  0.125000      2.000000
 -0.062500  0.062500  0.125000      2.000000
  0.000000  0.125000  0.125000      2.000000
  0.062500  0.125000  0.125000      2.000000
  0.125000  0.125000  0.125000      2.000000
  0.187500  0.125000  0.125000      2.000000
  0.250000  0.125000  0.125000      2.000000
  0.312500  0.125000  0.125000      2.000000
  0.375000  0.125000  0.125000      2.000000
  0.437500  0.125000  0.125000      2.000000
  0.500000  0.125000  0.125000      2.000000
 -0.437500  0.125000  0.125000      2.000000
 -0.375000  0.125000  0.125000      2.000000
 -0.312500  0.125000  0.125000      2.000000
 -0.250000  0.125000  0.125000      2.000000
 -0.187500  0.125000  0.125000      2.000000
 -0.125000  0.125000  0.125000      2.000000
 -0.062500  0.125000  0.125000      2.000000
  0.000000  0.187500  0.125000      2.000000
  0.062500  0.187500  0.125000      2.000000
  0.125000  0.187500  0.125000      2.000000
  0.187500  0.187500  0.125000      2.000000
  0.250000  0.187500  0.125000      2.000000
  0.312500  0.187500  0.125000      2.000000
  0.375000  0.187500  0.125000      2.000000
  0.437500  0.187500  0.125000      2.000000
  0.500000  0.187500  0.125000      2.000000
 -0.437500  0.187500  0.125000      2.000000
 -0.375000  0.187500  0.125000      2.000000
 -0.312500  0.187500  0.125000      2.000000
 -0.250000  0.187500  0.125000      2.000000
 -0.187500  0.187500  0.125000      2.000000
 -0.125000  0.187500  0.125000      2.000000
 -0.062500  0.187500  0.125000      2.000000
  0.000000  0.250000  0.125000      2.000000
  0.062500  0.250000  0.125000      2.000000
  0.125000  0.250000  0.125000      2.000000
  0.187500  0.250000  0.125000      2.000000
  0.250000  0.250000  0.125000      2.000000
  0.312500  0.250000  0.125000      2.000000
  0.375000  0.250000  0.125000      2.000000
  0.437500  0.250000  0.125000      2.000000
  0.500000  0.250000  0.125000      2.000000
 -0.437500  0.250000  0.125000      2.000000
 -0.375000  0.250000  0.125000      2.000000
 -0.312500  0.250000  0.125000      2.000000
 -0.250000  0.250000  0.125000      2.000000
 -0.187500  0.250000  0.125000      2.000000
 -0.125000  0.250000  0.125000      2.000000
 -0.062500  0.250000  0.125000      2.000000
  0.000000  0.312500  0.125000      2.000000
  0.062500  0.312500  0.125000      2.000000
  0.125000  0.312500  0.125000      2.000000
  0.187500  0.312500  0.125000      2.000000
  0.250000  0.312500  0.125000      2.000000
  0.312500  0.312500  0.125000      2.000000
  0.375000  0.312500  0.125000      2.000000
  0.437500  0.312500  0.125000      2.000000
  0.500000  0.312500  0.125000      2.000000
 -0.437500  0.312500  0.125000      2.000000
 -0.375000  0.312500  0.125000      2.000000
 -0.312500  0.312500  0.125000      2.000000
 -0.250000  0.312500  0.125000      2.000000
 -0.187500  0.312500  0.125000      2.000000
 -0.125000  0.312500  0.125000      2.000000
 -0.062500  0.312500  0.125000      2.000000
  0.000000  0.375000  0.125000      2.000000
  0.062500  0.375000  0.125000      2.000000
  0.125000  0.375000  0.125000      2.000000
  0.187500  0.375000  0.125000      2.000000
  0.250000  0.375000  0.125000      2.000000
  0.312500  0.375000  0.125000      2.000000
  0.375000  0.375000  0.125000      2.000000
  0.437500  0.375000  0.125000      2.000000
  0.500000  0.375000  0.125000      2.000000
 -0.437500  0.375000  0.125000      2.000000
 -0.375000  0.375000  0.125000      2.000000
 -0.312500  0.375000  0.125000      2.000000
 -0.250000  0.375000  0.125000      2.000000
 -0.187500  0.375000  0.125000      2.000000
 -0.125000  0.375000  0.125000      2.000000
 -0.062500  0.375000  0.125000      2.000000
  0.000000  0.437500  0.125000      2.000000
  0.062500  0.437500  0.125000      2.000000
  0.125000  0.437500  0.125000      2.000000
  0.187500  0.437500  0.125000      2.000000
  0.250000  0.437500  0.125000      2.000000
  0.312500  0.437500  0.125000      2.000000
  0.375000  0.437500  0.125000      2.000000
  0.437500  0.437500  0.125000      2.000000
  0.500000  0.437500  0.125000      2.000000
 -0.437500  0.437500  0.125000      2.000000
 -0.375000  0.437500  0.125000      2.000000
 -0.312500  0.437500  0.125000      2.000000
 -0.250000  0.437500  0.125000      2.000000
 -0.187500  0.437500  0.125000      2.000000
 -0.125000  0.437500  0.125000      2.000000
 -0.062500  0.437500  0.125000      2.000000
  0.000000  0.500000  0.125000      2.000000
  0.062500  0.500000  0.125000      2.000000
  0.125000  0.500000  0.125000      2.000000
  0.187500  0.500000  0.125000      2.000000
  0.250000  0.500000  0.125000      2.000000
  0.312500  0.500000  0.125000      2.000000
  0.375000  0.500000  0.125000      2.000000
  0.437500  0.500000  0.125000      2.000000
  0.500000  0.500000  0.125000      2.000000
 -0.437500  0.500000  0.125000      2.000000
 -0.375000  0.500000  0.125000      2.000000
 -0.312500  0.500000  0.125000      2.000000
 -0.250000  0.500000  0.125000      2.000000
 -0.187500  0.500000  0.125000      2.000000
 -0.125000  0.500000  0.125000      2.000000
 -0.062500  0.500000  0.125000      2.000000
  0.000000 -0.437500  0.125000      2.000000
  0.062500 -0.437500  0.125000      2.000000
  0.125000 -0.437500  0.125000      2.000000
  0.187500 -0.437500  0.125000      2.000000
  0.250000 -0.437500  0.125000      2.000000
  0.312500 -0.437500  0.125000      2.000000
  0.375000 -0.437500  0.125000      2.000000
  0.437500 -0.437500  0.125000      2.000000
  0.500000 -0.437500  0.125000      2.000000
 -0.437500 -0.437500  0.125000      2.000000
 -0.375000 -0.437500  0.125000      2.000000
 -0.312500 -0.437500  0.125000      2.000000
 -0.250000 -0.437500  0.125000      2.000000
 -0.187500 -0.437500  0.125000      2.000000
 -0.125000 -0.437500  0.125000      2.000000
 -0.062500 -0.437500  0.125000      2.000000
  0.000000 -0.375000  0.125000      2.000000
  0.062500 -0.375000  0.125000      2.000000
  0.125000 -0.375000  0.125000      2.000000
  0.187500 -0.375000  0.125000      2.000000
  0.250000 -0.375000  0.125000      2.000000
  0.312500 -0.375000  0.125000      2.000000
  0.375000 -0.375000  0.125000      2.000000
  0.437500 -0.375000  0.125000      2.000000
  0.500000 -0.375000  0.125000      2.000000
 -0.437500 -0.375000  0.125000      2.000000
 -0.375000 -0.375000  0.125000      2.000000
 -0.312500 -0.375000  0.125000      2.000000
 -0.250000 -0.375000  0.125000      2.000000
 -0.187500 -0.375000  0.125000      2.000000
 -0.125000 -0.375000  0.125000      2.000000
 -0.062500 -0.375000  0.125000      2.000000
  0.000000 -0.312500  0.125000      2.000000
  0.062500 -0.312500  0.125000      2.000000
  0.125000 -0.312500  0.125000      2.000000
  0.187500 -0.312500  0.125000      2.000000
  0.250000 -0.312500  0.125000      2.000000
  0.312500 -0.312500  0.125000      2.000000
  0.375000 -0.312500  0.125000      2.000000
  0.437500 -0.312500  0.125000      2.000000
  0.500000 -0.312500  0.125000      2.000000
 -0.437500 -0.312500  0.125000      2.000000
 -0.375000 -0.312500  0.125000      2.000000
 -0.312500 -0.312500  0.125000      2.000000
 -0.250000 -0.312500  0.125000      2.000000
 -0.187500 -0.312500  0.125000      2.000000
 -0.125000 -0.312500  0.125000      2.000000
 -0.062500 -0.312500  0.125000      2.000000
  0.000000 -0.250000  0.125000      2.000000
  0.062500 -0.250000  0.125000      2.000000
  0.125000 -0.250000  0.125000      2.000000
  0.187500 -0.250000  0.125000      2.000000
  0.250000 -0.250000  0.125000      2.000000
  0.312500 -0.250000  0.125000      2.000000
  0.375000 -0.250000  0.125000      2.000000
  0.437500 -0.250000  0.125000      2.000000
  0.500000 -0.250000  0.125000      2.000000
 -0.437500 -0.250000  0.125000      2.000000
 -0.375000 -0.250000  0.125000      2.000000
 -0.312500 -0.250000  0.125000      2.000000
 -0.250000 -0.250000  0.125000      2.000000
 -0.187500 -0.250000  0.125000      2.000000
 -0.125000 -0.250000  0.125000      2.000000
 -0.062500 -0.250000  0.125000      2.000000
  0.000000 -0.187500  0.125000      2.000000
  0.062500 -0.187500  0.125000      2.000000
  0.125000 -0.187500  0.125000      2.000000
  0.187500 -0.187500  0.125000      2.000000
  0.250000 -0.187500  0.125000      2.000000
  0.312500 -0.187500  0.125000      2.000000
  0.375000 -0.187500  0.125000      2.000000
  0.437500 -0.187500  0.125000      2.000000
  0.500000 -0.187500  0.125000      2.000000
 -0.437500 -0.187500  0.125000      2.000000
 -0.375000 -0.187500  0.125000      2.000000
 -0.312500 -0.187500  0.125000      2.000000
 -0.250000 -0.187500  0.125000      2.000000
 -0.187500 -0.187500  0.125000      2.000000
 -0.125000 -0.187500  0.125000      2.000000
 -0.062500 -0.187500  0.125000      2.000000
  0.000000 -0.125000  0.125000      2.000000
  0.062500 -0.125000  0.125000      2.000000
  0.125000 -0.125000  0.125000      2.000000
  0.187500 -0.125000  0.125000      2.000000
  0.250000 -0.125000  0.125000      2.000000
  0.312500 -0.125000  0.125000      2.000000
  0.375000 -0.125000  0.125000      2.000000
  0.437500 -0.125000  0.125000      2.000000
  0.500000 -0.125000  0.125000      2.000000
 -0.437500 -0.125000  0.125000      2.000000
 -0.375000 -0.125000  0.125000      2.000000
 -0.312500 -0.125000  0.125000      2.000000
 -0.250000 -0.125000  0.125000      2.000000
 -0.187500 -0.125000  0.125000      2.000000
 -0.125000 -0.125000  0.125000      2.000000
 -0.062500 -0.125000  0.125000      2.000000
  0.000000 -0.062500  0.125000      2.000000
  0.062500 -0.062500  0.125000      2.000000
  0.125000 -0.062500  0.125000      2.000000
  0.187500 -0.062500  0.125000      2.000000
  0.250000 -0.062500  0.125000      2.000000
  0.312500 -0.062500  0.125000      2.000000
  0.375000 -0.062500  0.125000      2.000000
  0.437500 -0.062500  0.125000      2.000000
  0.500000 -0.062500  0.125000      2.000000
 -0.437500 -0.062500  0.125000      2.000000
 -0.375000 -0.062500  0.125000      2.000000
 -0.312500 -0.062500  0.125000      2.000000
 -0.250000 -0.062500  0.125000      2.000000
 -0.187500 -0.062500  0.125000      2.000000
 -0.125000 -0.062500  0.125000      2.000000
 -0.062500 -0.062500  0.125000      2.000000
  0.000000  0.000000  0.187500      2.000000
  0.062500  0.000000  0.187500      2.000000
  0.125000  0.000000  0.187500      2.000000
  0.187500  0.000000  0.187500      2.000000
  0.250000  0.000000  0.187500      2.000000
  0.312500  0.000000  0.187500      2.000000
  0.375000  0.000000  0.187500      2.000000
  0.437500  0.000000  0.187500      2.000000
  0.500000  0.000000  0.187500      2.000000
 -0.437500  0.000000  0.187500      2.000000
 -0.375000  0.000000  0.187500      2.000000
 -0.312500  0.000000  0.187500      2.000000
 -0.250000  0.000000  0.187500      2.000000
 -0.187500  0.000000  0.187500      2.000000
 -0.125000  0.000000  0.187500      2.000000
 -0.062500  0.000000  0.187500      2.000000
  0.000000  0.062500  0.187500      2.000000
  0.062500  0.062500  0.187500      2.000000
  0.125000  0.062500  0.187500      2.000000
  0.187500  0.062500  0.187500      2.000000
  0.250000  0.062500  0.187500      2.000000
  0.312500  0.062500  0.187500      2.000000
  0.375000  0.062500  0.187500      2.000000
  0.437500  0.062500  0.187500      2.000000
  0.500000  0.062500  0.187500      2.000000
 -0.437500  0.062500  0.187500      2.000000
 -0.375000  0.062500  0.187500      2.000000
 -0.312500  0.062500  0.187500      2.000000
 -0.250000  0.062500  0.187500      2.000000
 -0.187500  0.062500  0.187500      2.000000
 -0.125000  0.062500  0.187500      2.000000
 -0.062500  0.062500  0.187500      2.000000
  0.000000  0.125000  0.187500      2.000000
  0.062500  0.125000  0.187500      2.000000
  0.125000  0.125000  0.187500      2.000000
  0.187500  0.125000  0.187500      2.000000
  0.250000  0.125000  0.187500      2.000000
  0.312500  0.125000  0.187500      2.000000
  0.375000  0.125000  0.187500      2.000000
  0.437500  0.125000  0.187500      2.000000
  0.500000  0.125000  0.187500      2.000000
 -0.437500  0.125000  0.187500      2.000000
 -0.375000  0.125000  0.187500      2.000000
 -0.312500  0.125000  0.187500      2.000000
 -0.250000  0.125000  0.187500      2.000000
 -0.187500  0.125000  0.187500      2.000000
 -0.125000  0.125000  0.187500      2.000000
 -0.062500  0.125000  0.187500      2.000000
  0.000000  0.187500  0.187500      2.000000
  0.062500  0.187500  0.187500      2.000000
  0.125000  0.187500  0.187500      2.000000
  0.187500  0.187500  0.187500      2.000000
  0.250000  0.187500  0.187500      2.000000
  0.312500  0.187500  0.187500      2.000000
  0.375000  0.187500  0.187500      2.000000
  0.437500  0.187500  0.187500      2.000000
  0.500000  0.187500  0.187500      2.000000
 -0.437500  0.187500  0.187500      2.000000
 -0.375000  0.187500  0.187500      2.000000
 -0.312500  0.187500  0.187500      2.000000
 -0.250000  0.187500  0.187500      2.000000
 -0.187500  0.187500  0.187500      2.000000
 -0.125000  0.187500  0.187500      2.000000
 -0.062500  0.187500  0.187500      2.000000
  0.000000  0.250000  0.187500      2.000000
  0.062500  0.250000  0.187500      2.000000
  0.125000  0.250000  0.187500      2.000000
  0.187500  0.250000  0.187500      2.000000
  0.250000  0.250000  0.187500      2.000000
  0.312500  0.250000  0.187500      2.000000
  0.375000  0.250000  0.187500      2.000000
  0.437500  0.250000  0.187500      2.000000
  0.500000  0.250000  0.187500      2.000000
 -0.437500  0.250000  0.187500      2.000000
 -0.375000  0.250000  0.187500      2.000000
 -0.312500  0.250000  0.187500      2.000000
 -0.250000  0.250000  0.187500      2.000000
 -0.187500  0.250000  0.187500      2.000000
 -0.125000  0.250000  0.187500      2.000000
 -0.062500  0.250000  0.187500      2.000000
  0.000000  0.312500  0.187500      2.000000
  0.062500  0.312500  0.187500      2.000000
  0.125000  0.312500  0.187500      2.000000
  0.187500  0.312500  0.187500      2.000000
  0.250000  0.312500  0.187500      2.000000
  0.312500  0.312500  0.187500      2.000000
  0.375000  0.312500  0.187500      2.000000
  0.437500  0.312500  0.187500      2.000000
  0.500000  0.312500  0.187500      2.000000
 -0.437500  0.312500  0.187500      2.000000
 -0.375000  0.312500  0.187500      2.000000
 -0.312500  0.312500  0.187500      2.000000
 -0.250000  0.312500  0.187500      2.000000
 -0.187500  0.312500  0.187500      2.000000
 -0.125000  0.312500  0.187500      2.000000
 -0.062500  0.312500  0.187500      2.000000
  0.000000  0.375000  0.187500      2.000000
  0.062500  0.375000  0.187500      2.000000
  0.125000  0.375000  0.187500      2.000000
  0.187500  0.375000  0.187500      2.000000
  0.250000  0.375000  0.187500      2.000000
  0.312500  0.375000  0.187500      2.000000
  0.375000  0.375000  0.187500      2.000000
  0.437500  0.375000  0.187500      2.000000
  0.500000  0.375000  0.187500      2.000000
 -0.437500  0.375000  0.187500      2.000000
 -0.375000  0.375000  0.187500      2.000000
 -0.312500  0.375000  0.187500      2.000000
 -0.250000  0.375000  0.187500      2.000000
 -0.187500  0.375000  0.187500      2.000000
 -0.125000  0.375000  0.187500      2.000000
 -0.062500  0.375000  0.187500      2.000000
  0.000000  0.437500  0.187500      2.000000
  0.062500  0.437500  0.187500      2.000000
  0.125000  0.437500  0.187500      2.000000
  0.187500  0.437500  0.187500      2.000000
  0.250000  0.437500  0.187500      2.000000
  0.312500  0.437500  0.187500      2.000000
  0.375000  0.437500  0.187500      2.000000
  0.437500  0.437500  0.187500      2.000000
  0.500000  0.437500  0.187500      2.000000
 -0.437500  0.437500  0.187500      2.000000
 -0.375000  0.437500  0.187500      2.000000
 -0.312500  0.437500  0.187500      2.000000
 -0.250000  0.437500  0.187500      2.000000
 -0.187500  0.437500  0.187500      2.000000
 -0.125000  0.437500  0.187500      2.000000
 -0.062500  0.437500  0.187500      2.000000
  0.000000  0.500000  0.187500      2.000000
  0.062500  0.500000  0.187500      2.000000
  0.125000  0.500000  0.187500      2.000000
  0.187500  0.500000  0.187500      2.000000
  0.250000  0.500000  0.187500      2.000000
  0.312500  0.500000  0.187500      2.000000
  0.375000  0.500000  0.187500      2.000000
  0.437500  0.500000  0.187500      2.000000
  0.500000  0.500000  0.187500      2.000000
 -0.437500  0.500000  0.187500      2.000000
 -0.375000  0.500000  0.187500      2.000000
 -0.312500  0.500000  0.187500      2.000000
 -0.250000  0.500000  0.187500      2.000000
 -0.187500  0.500000  0.187500      2.000000
 -0.125000  0.500000  0.187500      2.000000
 -0.062500  0.500000  0.187500      2.000000
  0.000000 -0.437500  0.187500      2.000000
  0.062500 -0.437500  0.187500      2.000000
  0.125000 -0.437500  0.187500      2.000000
  0.187500 -0.437500  0.187500      2.000000
  0.250000 -0.437500  0.187500      2.000000
  0.312500 -0.437500  0.187500      2.000000
  0.375000 -0.437500  0.187500      2.000000
  0.437500 -0.437500  0.187500      2.000000
  0.500000 -0.437500  0.187500      2.000000
 -0.437500 -0.437500  0.187500      2.000000
 -0.375000 -0.437500  0.187500      2.000000
 -0.312500 -0.437500  0.187500      2.000000
 -0.250000 -0.437500  0.187500      2.000000
 -0.187500 -0.437500  0.187500      2.000000
 -0.125000 -0.437500  0.187500      2.000000
 -0.062500 -0.437500  0.187500      2.000000
  0.000000 -0.375000  0.187500      2.000000
  0.062500 -0.375000  0.187500      2.000000
  0.125000 -0.375000  0.187500      2.000000
  0.187500 -0.375000  0.187500      2.000000
  0.250000 -0.375000  0.187500      2.000000
  0.312500 -0.375000  0.187500      2.000000
  0.375000 -0.375000  0.187500      2.000000
  0.437500 -0.375000  0.187500      2.000000
  0.500000 -0.375000  0.187500      2.000000
 -0.437500 -0.375000  0.187500      2.000000
 -0.375000 -0.375000  0.187500      2.000000
 -0.312500 -0.375000  0.187500      2.000000
 -0.250000 -0.375000  0.187500      2.000000
 -0.187500 -0.375000  0.187500      2.000000
 -0.125000 -0.375000  0.187500      2.000000
 -0.062500 -0.375000  0.187500      2.000000
  0.000000 -0.312500  0.187500      2.000000
  0.062500 -0.312500  0.187500      2.000000
  0.125000 -0.312500  0.187500      2.000000
  0.187500 -0.312500  0.187500      2.000000
  0.250000 -0.312500  0.187500      2.000000
  0.312500 -0.312500  0.187500      2.000000
  0.375000 -0.312500  0.187500      2.000000
  0.437500 -0.312500  0.187500      2.000000
  0.500000 -0.312500  0.187500      2.000000
 -0.437500 -0.312500  0.187500      2.000000
 -0.375000 -0.312500  0.187500      2.000000
 -0.312500 -0.312500  0.187500      2.000000
 -0.250000 -0.312500  0.187500      2.000000
 -0.187500 -0.312500  0.187500      2.000000
 -0.125000 -0.312500  0.187500      2.000000
 -0.062500 -0.312500  0.187500      2.000000
  0.000000 -0.250000  0.187500      2.000000
  0.062500 -0.250000  0.187500      2.000000
  0.125000 -0.250000  0.187500      2.000000
  0.187500 -0.250000  0.187500      2.000000
  0.250000 -0.250000  0.187500      2.000000
  0.312500 -0.250000  0.187500      2.000000
  0.375000 -0.250000  0.187500      2.000000
  0.437500 -0.250000  0.187500      2.000000
  0.500000 -0.250000  0.187500      2.000000
 -0.437500 -0.250000  0.187500      2.000000
 -0.375000 -0.250000  0.187500      2.000000
 -0.312500 -0.250000  0.187500      2.000000
 -0.250000 -0.250000  0.187500      2.000000
 -0.187500 -0.250000  0.187500      2.000000
 -0.125000 -0.250000  0.187500      2.000000
 -0.062500 -0.250000  0.187500      2.000000
  0.000000 -0.187500  0.187500      2.000000
  0.062500 -0.187500  0.187500      2.000000
  0.125000 -0.187500  0.187500      2.000000
  0.187500 -0.187500  0.187500      2.000000
  0.250000 -0.187500  0.187500      2.000000
  0.312500 -0.187500  0.187500      2.000000
  0.375000 -0.187500  0.187500      2.000000
  0.437500 -0.187500  0.187500      2.000000
  0.500000 -0.187500  0.187500      2.000000
 -0.437500 -0.187500  0.187500      2.000000
 -0.375000 -0.187500  0.187500      2.000000
 -0.312500 -0.187500  0.187500      2.000000
 -0.250000 -0.187500  0.187500      2.000000
 -0.187500 -0.187500  0.187500      2.000000
 -0.125000 -0.187500  0.187500      2.000000
 -0.062500 -0.187500  0.187500      2.000000
  0.000000 -0.125000  0.187500      2.000000
  0.062500 -0.125000  0.187500      2.000000
  0.125000 -0.125000  0.187500      2.000000
  0.187500 -0.125000  0.187500      2.000000
  0.250000 -0.125000  0.187500      2.000000
  0.312500 -0.125000  0.187500      2.000000
  0.375000 -0.125000  0.187500      2.000000
  0.437500 -0.125000  0.187500      2.000000
  0.500000 -0.125000  0.187500      2.000000
 -0.437500 -0.125000  0.187500      2.000000
 -0.375000 -0.125000  0.187500      2.000000
 -0.312500 -0.125000  0.187500      2.000000
 -0.250000 -0.125000  0.187500      2.000000
 -0.187500 -0.125000  0.187500      2.000000
 -0.125000 -0.125000  0.187500      2.000000
 -0.062500 -0.125000  0.187500      2.000000
  0.000000 -0.062500  0.187500      2.000000
  0.062500 -0.062500  0.187500      2.000000
  0.125000 -0.062500  0.187500      2.000000
  0.187500 -0.062500  0.187500      2.000000
  0.250000 -0.062500  0.187500      2.000000
  0.312500 -0.062500  0.187500      2.000000
  0.375000 -0.062500  0.187500      2.000000
  0.437500 -0.062500  0.187500      2.000000
  0.500000 -0.062500  0.187500      2.000000
 -0.437500 -0.062500  0.187500      2.000000
 -0.375000 -0.062500  0.187500      2.000000
 -0.312500 -0.062500  0.187500      2.000000
 -0.250000 -0.062500  0.187500      2.000000
 -0.187500 -0.062500  0.187500      2.000000
 -0.125000 -0.062500  0.187500      2.000000
 -0.062500 -0.062500  0.187500      2.000000
  0.000000  0.000000  0.250000      2.000000
  0.062500  0.000000  0.250000      2.000000
  0.125000  0.000000  0.250000      2.000000
  0.187500  0.000000  0.250000      2.000000
  0.250000  0.000000  0.250000      2.000000
  0.312500  0.000000  0.250000      2.000000
  0.375000  0.000000  0.250000      2.000000
  0.437500  0.000000  0.250000      2.000000
  0.500000  0.000000  0.250000      2.000000
 -0.437500  0.000000  0.250000      2.000000
 -0.375000  0.000000  0.250000      2.000000
 -0.312500  0.000000  0.250000      2.000000
 -0.250000  0.000000  0.250000      2.000000
 -0.187500  0.000000  0.250000      2.000000
 -0.125000  0.000000  0.250000      2.000000
 -0.062500  0.000000  0.250000      2.000000
  0.000000  0.062500  0.250000      2.000000
  0.062500  0.062500  0.250000      2.000000
  0.125000  0.062500  0.250000      2.000000
  0.187500  0.062500  0.250000      2.000000
  0.250000  0.062500  0.250000      2.000000
  0.312500  0.062500  0.250000      2.000000
  0.375000  0.062500  0.250000      2.000000
  0.437500  0.062500  0.250000      2.000000
  0.500000  0.062500  0.250000      2.000000
 -0.437500  0.062500  0.250000      2.000000
 -0.375000  0.062500  0.250000      2.000000
 -0.312500  0.062500  0.250000      2.000000
 -0.250000  0.062500  0.250000      2.000000
 -0.187500  0.062500  0.250000      2.000000
 -0.125000  0.062500  0.250000      2.000000
 -0.062500  0.062500  0.250000      2.000000
  0.000000  0.125000  0.250000      2.000000
  0.062500  0.125000  0.250000      2.000000
  0.125000  0.125000  0.250000      2.000000
  0.187500  0.125000  0.250000      2.000000
  0.250000  0.125000  0.250000      2.000000
  0.312500  0.125000  0.250000      2.000000
  0.375000  0.125000  0.250000      2.000000
  0.437500  0.125000  0.250000      2.000000
  0.500000  0.125000  0.250000      2.000000
 -0.437500  0.125000  0.250000      2.000000
 -0.375000  0.125000  0.250000      2.000000
 -0.312500  0.125000  0.250000      2.000000
 -0.250000  0.125000  0.250000      2.000000
 -0.187500  0.125000  0.250000      2.000000
 -0.125000  0.125000  0.250000      2.000000
 -0.062500  0.125000  0.250000      2.000000
  0.000000  0.187500  0.250000      2.000000
  0.062500  0.187500  0.250000      2.000000
  0.125000  0.187500  0.250000      2.000000
  0.187500  0.187500  0.250000      2.000000
  0.250000  0.187500  0.250000      2.000000
  0.312500  0.187500  0.250000      2.000000
  0.375000  0.187500  0.250000      2.000000
  0.437500  0.187500  0.250000      2.000000
  0.500000  0.187500  0.250000      2.000000
 -0.437500  0.187500  0.250000      2.000000
 -0.375000  0.187500  0.250000      2.000000
 -0.312500  0.187500  0.250000      2.000000
 -0.250000  0.187500  0.250000      2.000000
 -0.187500  0.187500  0.250000      2.000000
 -0.125000  0.187500  0.250000      2.000000
 -0.062500  0.187500  0.250000      2.000000
  0.000000  0.250000  0.250000      2.000000
  0.062500  0.250000  0.250000      2.000000
  0.125000  0.250000  0.250000      2.000000
  0.187500  0.250000  0.250000      2.000000
  0.250000  0.250000  0.250000      2.000000
  0.312500  0.250000  0.250000      2.000000
  0.375000  0.250000  0.250000      2.000000
  0.437500  0.250000  0.250000      2.000000
  0.500000  0.250000  0.250000      2.000000
 -0.437500  0.250000  0.250000      2.000000
 -0.375000  0.250000  0.250000      2.000000
 -0.312500  0.250000  0.250000      2.000000
 -0.250000  0.250000  0.250000      2.000000
 -0.187500  0.250000  0.250000      2.000000
 -0.125000  0.250000  0.250000      2.000000
 -0.062500  0.250000  0.250000      2.000000
  0.000000  0.312500  0.250000      2.000000
  0.062500  0.312500  0.250000      2.000000
  0.125000  0.312500  0.250000      2.000000
  0.187500  0.312500  0.250000      2.000000
  0.250000  0.312500  0.250000      2.000000
  0.312500  0.312500  0.250000      2.000000
  0.375000  0.312500  0.250000      2.000000
  0.437500  0.312500  0.250000      2.000000
  0.500000  0.312500  0.250000      2.000000
 -0.437500  0.312500  0.250000      2.000000
 -0.375000  0.312500  0.250000      2.000000
 -0.312500  0.312500  0.250000      2.000000
 -0.250000  0.312500  0.250000      2.000000
 -0.187500  0.312500  0.250000      2.000000
 -0.125000  0.312500  0.250000      2.000000
 -0.062500  0.312500  0.250000      2.000000
  0.000000  0.375000  0.250000      2.000000
  0.062500  0.375000  0.250000      2.000000
  0.125000  0.375000  0.250000      2.000000
  0.187500  0.375000  0.250000      2.000000
  0.250000  0.375000  0.250000      2.000000
  0.312500  0.375000  0.250000      2.000000
  0.375000  0.375000  0.250000      2.000000
  0.437500  0.375000  0.250000      2.000000
  0.500000  0.375000  0.250000      2.000000
 -0.437500  0.375000  0.250000      2.000000
 -0.375000  0.375000  0.250000      2.000000
 -0.312500  0.375000  0.250000      2.000000
 -0.250000  0.375000  0.250000      2.000000
 -0.187500  0.375000  0.250000      2.000000
 -0.125000  0.375000  0.250000      2.000000
 -0.062500  0.375000  0.250000      2.000000
  0.000000  0.437500  0.250000      2.000000
  0.062500  0.437500  0.250000      2.000000
  0.125000  0.437500  0.250000      2.000000
  0.187500  0.437500  0.250000      2.000000
  0.250000  0.437500  0.250000      2.000000
  0.312500  0.437500  0.250000      2.000000
  0.375000  0.437500  0.250000      2.000000
  0.437500  0.437500  0.250000      2.000000
  0.500000  0.437500  0.250000      2.000000
 -0.437500  0.437500  0.250000      2.000000
 -0.375000  0.437500  0.250000      2.000000
 -0.312500  0.437500  0.250000      2.000000
 -0.250000  0.437500  0.250000      2.000000
 -0.187500  0.437500  0.250000      2.000000
 -0.125000  0.437500  0.250000      2.000000
 -0.062500  0.437500  0.250000      2.000000
  0.000000  0.500000  0.250000      2.000000
  0.062500  0.500000  0.250000      2.000000
  0.125000  0.500000  0.250000      2.000000
  0.187500  0.500000  0.250000      2.000000
  0.250000  0.500000  0.250000      2.000000
  0.312500  0.500000  0.250000      2.000000
  0.375000  0.500000  0.250000      2.000000
  0.437500  0.500000  0.250000      2.000000
  0.500000  0.500000  0.250000      2.000000
 -0.437500  0.500000  0.250000      2.000000
 -0.375000  0.500000  0.250000      2.000000
 -0.312500  0.500000  0.250000      2.000000
 -0.250000  0.500000  0.250000      2.000000
 -0.187500  0.500000  0.250000      2.000000
 -0.125000  0.500000  0.250000      2.000000
 -0.062500  0.500000  0.250000      2.000000
  0.000000 -0.437500  0.250000      2.000000
  0.062500 -0.437500  0.250000      2.000000
  0.125000 -0.437500  0.250000      2.000000
  0.187500 -0.437500  0.250000      2.000000
  0.250000 -0.437500  0.250000      2.000000
  0.312500 -0.437500  0.250000      2.000000
  0.375000 -0.437500  0.250000      2.000000
  0.437500 -0.437500  0.250000      2.000000
  0.500000 -0.437500  0.250000      2.000000
 -0.437500 -0.437500  0.250000      2.000000
 -0.375000 -0.437500  0.250000      2.000000
 -0.312500 -0.437500  0.250000      2.000000
 -0.250000 -0.437500  0.250000      2.000000
 -0.187500 -0.437500  0.250000      2.000000
 -0.125000 -0.437500  0.250000      2.000000
 -0.062500 -0.437500  0.250000      2.000000
  0.000000 -0.375000  0.250000      2.000000
  0.062500 -0.375000  0.250000      2.000000
  0.125000 -0.375000  0.250000      2.000000
  0.187500 -0.375000  0.250000      2.000000
  0.250000 -0.375000  0.250000      2.000000
  0.312500 -0.375000  0.250000      2.000000
  0.375000 -0.375000  0.250000      2.000000
  0.437500 -0.375000  0.250000      2.000000
  0.500000 -0.375000  0.250000      2.000000
 -0.437500 -0.375000  0.250000      2.000000
 -0.375000 -0.375000  0.250000      2.000000
 -0.312500 -0.375000  0.250000      2.000000
 -0.250000 -0.375000  0.250000      2.000000
 -0.187500 -0.375000  0.250000      2.000000
 -0.125000 -0.375000  0.250000      2.000000
 -0.062500 -0.375000  0.250000      2.000000
  0.000000 -0.312500  0.250000      2.000000
  0.062500 -0.312500  0.250000      2.000000
  0.125000 -0.312500  0.250000      2.000000
  0.187500 -0.312500  0.250000      2.000000
  0.250000 -0.312500  0.250000      2.000000
  0.312500 -0.312500  0.250000      2.000000
  0.375000 -0.312500  0.250000      2.000000
  0.437500 -0.312500  0.250000      2.000000
  0.500000 -0.312500  0.250000      2.000000
 -0.437500 -0.312500  0.250000      2.000000
 -0.375000 -0.312500  0.250000      2.000000
 -0.312500 -0.312500  0.250000      2.000000
 -0.250000 -0.312500  0.250000      2.000000
 -0.187500 -0.312500  0.250000      2.000000
 -0.125000 -0.312500  0.250000      2.000000
 -0.062500 -0.312500  0.250000      2.000000
  0.000000 -0.250000  0.250000      2.000000
  0.062500 -0.250000  0.250000      2.000000
  0.125000 -0.250000  0.250000      2.000000
  0.187500 -0.250000  0.250000      2.000000
  0.250000 -0.250000  0.250000      2.000000
  0.312500 -0.250000  0.250000      2.000000
  0.375000 -0.250000  0.250000      2.000000
  0.437500 -0.250000  0.250000      2.000000
  0.500000 -0.250000  0.250000      2.000000
 -0.437500 -0.250000  0.250000      2.000000
 -0.375000 -0.250000  0.250000      2.000000
 -0.312500 -0.250000  0.250000      2.000000
 -0.250000 -0.250000  0.250000      2.000000
 -0.187500 -0.250000  0.250000      2.000000
 -0.125000 -0.250000  0.250000      2.000000
 -0.062500 -0.250000  0.250000      2.000000
  0.000000 -0.187500  0.250000      2.000000
  0.062500 -0.187500  0.250000      2.000000
  0.125000 -0.187500  0.250000      2.000000
  0.187500 -0.187500  0.250000      2.000000
  0.250000 -0.187500  0.250000      2.000000
  0.312500 -0.187500  0.250000      2.000000
  0.375000 -0.187500  0.250000      2.000000
  0.437500 -0.187500  0.250000      2.000000
  0.500000 -0.187500  0.250000      2.000000
 -0.437500 -0.187500  0.250000      2.000000
 -0.375000 -0.187500  0.250000      2.000000
 -0.312500 -0.187500  0.250000      2.000000
 -0.250000 -0.187500  0.250000      2.000000
 -0.187500 -0.187500  0.250000      2.000000
 -0.125000 -0.187500  0.250000      2.000000
 -0.062500 -0.187500  0.250000      2.000000
  0.000000 -0.125000  0.250000      2.000000
  0.062500 -0.125000  0.250000      2.000000
  0.125000 -0.125000  0.250000      2.000000
  0.187500 -0.125000  0.250000      2.000000
  0.250000 -0.125000  0.250000      2.000000
  0.312500 -0.125000  0.250000      2.000000
  0.375000 -0.125000  0.250000      2.000000
  0.437500 -0.125000  0.250000      2.000000
  0.500000 -0.125000  0.250000      2.000000
 -0.437500 -0.125000  0.250000      2.000000
 -0.375000 -0.125000  0.250000      2.000000
 -0.312500 -0.125000  0.250000      2.000000
 -0.250000 -0.125000  0.250000      2.000000
 -0.187500 -0.125000  0.250000      2.000000
 -0.125000 -0.125000  0.250000      2.000000
 -0.062500 -0.125000  0.250000      2.000000
  0.000000 -0.062500  0.250000      2.000000
  0.062500 -0.062500  0.250000      2.000000
  0.125000 -0.062500  0.250000      2.000000
  0.187500 -0.062500  0.250000      2.000000
  0.250000 -0.062500  0.250000      2.000000
  0.312500 -0.062500  0.250000      2.000000
  0.375000 -0.062500  0.250000      2.000000
  0.437500 -0.062500  0.250000      2.000000
  0.500000 -0.062500  0.250000      2.000000
 -0.437500 -0.062500  0.250000      2.000000
 -0.375000 -0.062500  0.250000      2.000000
 -0.312500 -0.062500  0.250000      2.000000
 -0.250000 -0.062500  0.250000      2.000000
 -0.187500 -0.062500  0.250000      2.000000
 -0.125000 -0.062500  0.250000      2.000000
 -0.062500 -0.062500  0.250000      2.000000
  0.000000  0.000000  0.312500      2.000000
  0.062500  0.000000  0.312500      2.000000
  0.125000  0.000000  0.312500      2.000000
  0.187500  0.000000  0.312500      2.000000
  0.250000  0.000000  0.312500      2.000000
  0.312500  0.000000  0.312500      2.000000
  0.375000  0.000000  0.312500      2.000000
  0.437500  0.000000  0.312500      2.000000
  0.500000  0.000000  0.312500      2.000000
 -0.437500  0.000000  0.312500      2.000000
 -0.375000  0.000000  0.312500      2.000000
 -0.312500  0.000000  0.312500      2.000000
 -0.250000  0.000000  0.312500      2.000000
 -0.187500  0.000000  0.312500      2.000000
 -0.125000  0.000000  0.312500      2.000000
 -0.062500  0.000000  0.312500      2.000000
  0.000000  0.062500  0.312500      2.000000
  0.062500  0.062500  0.312500      2.000000
  0.125000  0.062500  0.312500      2.000000
  0.187500  0.062500  0.312500      2.000000
  0.250000  0.062500  0.312500      2.000000
  0.312500  0.062500  0.312500      2.000000
  0.375000  0.062500  0.312500      2.000000
  0.437500  0.062500  0.312500      2.000000
  0.500000  0.062500  0.312500      2.000000
 -0.437500  0.062500  0.312500      2.000000
 -0.375000  0.062500  0.312500      2.000000
 -0.312500  0.062500  0.312500      2.000000
 -0.250000  0.062500  0.312500      2.000000
 -0.187500  0.062500  0.312500      2.000000
 -0.125000  0.062500  0.312500      2.000000
 -0.062500  0.062500  0.312500      2.000000
  0.000000  0.125000  0.312500      2.000000
  0.062500  0.125000  0.312500      2.000000
  0.125000  0.125000  0.312500      2.000000
  0.187500  0.125000  0.312500      2.000000
  0.250000  0.125000  0.312500      2.000000
  0.312500  0.125000  0.312500      2.000000
  0.375000  0.125000  0.312500      2.000000
  0.437500  0.125000  0.312500      2.000000
  0.500000  0.125000  0.312500      2.000000
 -0.437500  0.125000  0.312500      2.000000
 -0.375000  0.125000  0.312500      2.000000
 -0.312500  0.125000  0.312500      2.000000
 -0.250000  0.125000  0.312500      2.000000
 -0.187500  0.125000  0.312500      2.000000
 -0.125000  0.125000  0.312500      2.000000
 -0.062500  0.125000  0.312500      2.000000
  0.000000  0.187500  0.312500      2.000000
  0.062500  0.187500  0.312500      2.000000
  0.125000  0.187500  0.312500      2.000000
  0.187500  0.187500  0.312500      2.000000
  0.250000  0.187500  0.312500      2.000000
  0.312500  0.187500  0.312500      2.000000
  0.375000  0.187500  0.312500      2.000000
  0.437500  0.187500  0.312500      2.000000
  0.500000  0.187500  0.312500      2.000000
 -0.437500  0.187500  0.312500      2.000000
 -0.375000  0.187500  0.312500      2.000000
 -0.312500  0.187500  0.312500      2.000000
 -0.250000  0.187500  0.312500      2.000000
 -0.187500  0.187500  0.312500      2.000000
 -0.125000  0.187500  0.312500      2.000000
 -0.062500  0.187500  0.312500      2.000000
  0.000000  0.250000  0.312500      2.000000
  0.062500  0.250000  0.312500      2.000000
  0.125000  0.250000  0.312500      2.000000
  0.187500  0.250000  0.312500      2.000000
  0.250000  0.250000  0.312500      2.000000
  0.312500  0.250000  0.312500      2.000000
  0.375000  0.250000  0.312500      2.000000
  0.437500  0.250000  0.312500      2.000000
  0.500000  0.250000  0.312500      2.000000
 -0.437500  0.250000  0.312500      2.000000
 -0.375000  0.250000  0.312500      2.000000
 -0.312500  0.250000  0.312500      2.000000
 -0.250000  0.250000  0.312500      2.000000
 -0.187500  0.250000  0.312500      2.000000
 -0.125000  0.250000  0.312500      2.000000
 -0.062500  0.250000  0.312500      2.000000
  0.000000  0.312500  0.312500      2.000000
  0.062500  0.312500  0.312500      2.000000
  0.125000  0.312500  0.312500      2.000000
  0.187500  0.312500  0.312500      2.000000
  0.250000  0.312500  0.312500      2.000000
  0.312500  0.312500  0.312500      2.000000
  0.375000  0.312500  0.312500      2.000000
  0.437500  0.312500  0.312500      2.000000
  0.500000  0.312500  0.312500      2.000000
 -0.437500  0.312500  0.312500      2.000000
 -0.375000  0.312500  0.312500      2.000000
 -0.312500  0.312500  0.312500      2.000000
 -0.250000  0.312500  0.312500      2.000000
 -0.187500  0.312500  0.312500      2.000000
 -0.125000  0.312500  0.312500      2.000000
 -0.062500  0.312500  0.312500      2.000000
  0.000000  0.375000  0.312500      2.000000
  0.062500  0.375000  0.312500      2.000000
  0.125000  0.375000  0.312500      2.000000
  0.187500  0.375000  0.312500      2.000000
  0.250000  0.375000  0.312500      2.000000
  0.312500  0.375000  0.312500      2.000000
  0.375000  0.375000  0.312500      2.000000
  0.437500  0.375000  0.312500      2.000000
  0.500000  0.375000  0.312500      2.000000
 -0.437500  0.375000  0.312500      2.000000
 -0.375000  0.375000  0.312500      2.000000
 -0.312500  0.375000  0.312500      2.000000
 -0.250000  0.375000  0.312500      2.000000
 -0.187500  0.375000  0.312500      2.000000
 -0.125000  0.375000  0.312500      2.000000
 -0.062500  0.375000  0.312500      2.000000
  0.000000  0.437500  0.312500      2.000000
  0.062500  0.437500  0.312500      2.000000
  0.125000  0.437500  0.312500      2.000000
  0.187500  0.437500  0.312500      2.000000
  0.250000  0.437500  0.312500      2.000000
  0.312500  0.437500  0.312500      2.000000
  0.375000  0.437500  0.312500      2.000000
  0.437500  0.437500  0.312500      2.000000
  0.500000  0.437500  0.312500      2.000000
 -0.437500  0.437500  0.312500      2.000000
 -0.375000  0.437500  0.312500      2.000000
 -0.312500  0.437500  0.312500      2.000000
 -0.250000  0.437500  0.312500      2.000000
 -0.187500  0.437500  0.312500      2.000000
 -0.125000  0.437500  0.312500      2.000000
 -0.062500  0.437500  0.312500      2.000000
  0.000000  0.500000  0.312500      2.000000
  0.062500  0.500000  0.312500      2.000000
  0.125000  0.500000  0.312500      2.000000
  0.187500  0.500000  0.312500      2.000000
  0.250000  0.500000  0.312500      2.000000
  0.312500  0.500000  0.312500      2.000000
  0.375000  0.500000  0.312500      2.000000
  0.437500  0.500000  0.312500      2.000000
  0.500000  0.500000  0.312500      2.000000
 -0.437500  0.500000  0.312500      2.000000
 -0.375000  0.500000  0.312500      2.000000
 -0.312500  0.500000  0.312500      2.000000
 -0.250000  0.500000  0.312500      2.000000
 -0.187500  0.500000  0.312500      2.000000
 -0.125000  0.500000  0.312500      2.000000
 -0.062500  0.500000  0.312500      2.000000
  0.000000 -0.437500  0.312500      2.000000
  0.062500 -0.437500  0.312500      2.000000
  0.125000 -0.437500  0.312500      2.000000
  0.187500 -0.437500  0.312500      2.000000
  0.250000 -0.437500  0.312500      2.000000
  0.312500 -0.437500  0.312500      2.000000
  0.375000 -0.437500  0.312500      2.000000
  0.437500 -0.437500  0.312500      2.000000
  0.500000 -0.437500  0.312500      2.000000
 -0.437500 -0.437500  0.312500      2.000000
 -0.375000 -0.437500  0.312500      2.000000
 -0.312500 -0.437500  0.312500      2.000000
 -0.250000 -0.437500  0.312500      2.000000
 -0.187500 -0.437500  0.312500      2.000000
 -0.125000 -0.437500  0.312500      2.000000
 -0.062500 -0.437500  0.312500      2.000000
  0.000000 -0.375000  0.312500      2.000000
  0.062500 -0.375000  0.312500      2.000000
  0.125000 -0.375000  0.312500      2.000000
  0.187500 -0.375000  0.312500      2.000000
  0.250000 -0.375000  0.312500      2.000000
  0.312500 -0.375000  0.312500      2.000000
  0.375000 -0.375000  0.312500      2.000000
  0.437500 -0.375000  0.312500      2.000000
  0.500000 -0.375000  0.312500      2.000000
 -0.437500 -0.375000  0.312500      2.000000
 -0.375000 -0.375000  0.312500      2.000000
 -0.312500 -0.375000  0.312500      2.000000
 -0.250000 -0.375000  0.312500      2.000000
 -0.187500 -0.375000  0.312500      2.000000
 -0.125000 -0.375000  0.312500      2.000000
 -0.062500 -0.375000  0.312500      2.000000
  0.000000 -0.312500  0.312500      2.000000
  0.062500 -0.312500  0.312500      2.000000
  0.125000 -0.312500  0.312500      2.000000
  0.187500 -0.312500  0.312500      2.000000
  0.250000 -0.312500  0.312500      2.000000
  0.312500 -0.312500  0.312500      2.000000
  0.375000 -0.312500  0.312500      2.000000
  0.437500 -0.312500  0.312500      2.000000
  0.500000 -0.312500  0.312500      2.000000
 -0.437500 -0.312500  0.312500      2.000000
 -0.375000 -0.312500  0.312500      2.000000
 -0.312500 -0.312500  0.312500      2.000000
 -0.250000 -0.312500  0.312500      2.000000
 -0.187500 -0.312500  0.312500      2.000000
 -0.125000 -0.312500  0.312500      2.000000
 -0.062500 -0.312500  0.312500      2.000000
  0.000000 -0.250000  0.312500      2.000000
  0.062500 -0.250000  0.312500      2.000000
  0.125000 -0.250000  0.312500      2.000000
  0.187500 -0.250000  0.312500      2.000000
  0.250000 -0.250000  0.312500      2.000000
  0.312500 -0.250000  0.312500      2.000000
  0.375000 -0.250000  0.312500      2.000000
  0.437500 -0.250000  0.312500      2.000000
  0.500000 -0.250000  0.312500      2.000000
 -0.437500 -0.250000  0.312500      2.000000
 -0.375000 -0.250000  0.312500      2.000000
 -0.312500 -0.250000  0.312500      2.000000
 -0.250000 -0.250000  0.312500      2.000000
 -0.187500 -0.250000  0.312500      2.000000
 -0.125000 -0.250000  0.312500      2.000000
 -0.062500 -0.250000  0.312500      2.000000
  0.000000 -0.187500  0.312500      2.000000
  0.062500 -0.187500  0.312500      2.000000
  0.125000 -0.187500  0.312500      2.000000
  0.187500 -0.187500  0.312500      2.000000
  0.250000 -0.187500  0.312500      2.000000
  0.312500 -0.187500  0.312500      2.000000
  0.375000 -0.187500  0.312500      2.000000
  0.437500 -0.187500  0.312500      2.000000
  0.500000 -0.187500  0.312500      2.000000
 -0.437500 -0.187500  0.312500      2.000000
 -0.375000 -0.187500  0.312500      2.000000
 -0.312500 -0.187500  0.312500      2.000000
 -0.250000 -0.187500  0.312500      2.000000
 -0.187500 -0.187500  0.312500      2.000000
 -0.125000 -0.187500  0.312500      2.000000
 -0.062500 -0.187500  0.312500      2.000000
  0.000000 -0.125000  0.312500      2.000000
  0.062500 -0.125000  0.312500      2.000000
  0.125000 -0.125000  0.312500      2.000000
  0.187500 -0.125000  0.312500      2.000000
  0.250000 -0.125000  0.312500      2.000000
  0.312500 -0.125000  0.312500      2.000000
  0.375000 -0.125000  0.312500      2.000000
  0.437500 -0.125000  0.312500      2.000000
  0.500000 -0.125000  0.312500      2.000000
 -0.437500 -0.125000  0.312500      2.000000
 -0.375000 -0.125000  0.312500      2.000000
 -0.312500 -0.125000  0.312500      2.000000
 -0.250000 -0.125000  0.312500      2.000000
 -0.187500 -0.125000  0.312500      2.000000
 -0.125000 -0.125000  0.312500      2.000000
 -0.062500 -0.125000  0.312500      2.000000
  0.000000 -0.062500  0.312500      2.000000
  0.062500 -0.062500  0.312500      2.000000
  0.125000 -0.062500  0.312500      2.000000
  0.187500 -0.062500  0.312500      2.000000
  0.250000 -0.062500  0.312500      2.000000
  0.312500 -0.062500  0.312500      2.000000
  0.375000 -0.062500  0.312500      2.000000
  0.437500 -0.062500  0.312500      2.000000
  0.500000 -0.062500  0.312500      2.000000
 -0.437500 -0.062500  0.312500      2.000000
 -0.375000 -0.062500  0.312500      2.000000
 -0.312500 -0.062500  0.312500      2.000000
 -0.250000 -0.062500  0.312500      2.000000
 -0.187500 -0.062500  0.312500      2.000000
 -0.125000 -0.062500  0.312500      2.000000
 -0.062500 -0.062500  0.312500      2.000000
  0.000000  0.000000  0.375000      2.000000
  0.062500  0.000000  0.375000      2.000000
  0.125000  0.000000  0.375000      2.000000
  0.187500  0.000000  0.375000      2.000000
  0.250000  0.000000  0.375000      2.000000
  0.312500  0.000000  0.375000      2.000000
  0.375000  0.000000  0.375000      2.000000
  0.437500  0.000000  0.375000      2.000000
  0.500000  0.000000  0.375000      2.000000
 -0.437500  0.000000  0.375000      2.000000
 -0.375000  0.000000  0.375000      2.000000
 -0.312500  0.000000  0.375000      2.000000
 -0.250000  0.000000  0.375000      2.000000
 -0.187500  0.000000  0.375000      2.000000
 -0.125000  0.000000  0.375000      2.000000
 -0.062500  0.000000  0.375000      2.000000
  0.000000  0.062500  0.375000      2.000000
  0.062500  0.062500  0.375000      2.000000
  0.125000  0.062500  0.375000      2.000000
  0.187500  0.062500  0.375000      2.000000
  0.250000  0.062500  0.375000      2.000000
  0.312500  0.062500  0.375000      2.000000
  0.375000  0.062500  0.375000      2.000000
  0.437500  0.062500  0.375000      2.000000
  0.500000  0.062500  0.375000      2.000000
 -0.437500  0.062500  0.375000      2.000000
 -0.375000  0.062500  0.375000      2.000000
 -0.312500  0.062500  0.375000      2.000000
 -0.250000  0.062500  0.375000      2.000000
 -0.187500  0.062500  0.375000      2.000000
 -0.125000  0.062500  0.375000      2.000000
 -0.062500  0.062500  0.375000      2.000000
  0.000000  0.125000  0.375000      2.000000
  0.062500  0.125000  0.375000      2.000000
  0.125000  0.125000  0.375000      2.000000
  0.187500  0.125000  0.375000      2.000000
  0.250000  0.125000  0.375000      2.000000
  0.312500  0.125000  0.375000      2.000000
  0.375000  0.125000  0.375000      2.000000
  0.437500  0.125000  0.375000      2.000000
  0.500000  0.125000  0.375000      2.000000
 -0.437500  0.125000  0.375000      2.000000
 -0.375000  0.125000  0.375000      2.000000
 -0.312500  0.125000  0.375000      2.000000
 -0.250000  0.125000  0.375000      2.000000
 -0.187500  0.125000  0.375000      2.000000
 -0.125000  0.125000  0.375000      2.000000
 -0.062500  0.125000  0.375000      2.000000
  0.000000  0.187500  0.375000      2.000000
  0.062500  0.187500  0.375000      2.000000
  0.125000  0.187500  0.375000      2.000000
  0.187500  0.187500  0.375000      2.000000
  0.250000  0.187500  0.375000      2.000000
  0.312500  0.187500  0.375000      2.000000
  0.375000  0.187500  0.375000      2.000000
  0.437500  0.187500  0.375000      2.000000
  0.500000  0.187500  0.375000      2.000000
 -0.437500  0.187500  0.375000      2.000000
 -0.375000  0.187500  0.375000      2.000000
 -0.312500  0.187500  0.375000      2.000000
 -0.250000  0.187500  0.375000      2.000000
 -0.187500  0.187500  0.375000      2.000000
 -0.125000  0.187500  0.375000      2.000000
 -0.062500  0.187500  0.375000      2.000000
  0.000000  0.250000  0.375000      2.000000
  0.062500  0.250000  0.375000      2.000000
  0.125000  0.250000  0.375000      2.000000
  0.187500  0.250000  0.375000      2.000000
  0.250000  0.250000  0.375000      2.000000
  0.312500  0.250000  0.375000      2.000000
  0.375000  0.250000  0.375000      2.000000
  0.437500  0.250000  0.375000      2.000000
  0.500000  0.250000  0.375000      2.000000
 -0.437500  0.250000  0.375000      2.000000
 -0.375000  0.250000  0.375000      2.000000
 -0.312500  0.250000  0.375000      2.000000
 -0.250000  0.250000  0.375000      2.000000
 -0.187500  0.250000  0.375000      2.000000
 -0.125000  0.250000  0.375000      2.000000
 -0.062500  0.250000  0.375000      2.000000
  0.000000  0.312500  0.375000      2.000000
  0.062500  0.312500  0.375000      2.000000
  0.125000  0.312500  0.375000      2.000000
  0.187500  0.312500  0.375000      2.000000
  0.250000  0.312500  0.375000      2.000000
  0.312500  0.312500  0.375000      2.000000
  0.375000  0.312500  0.375000      2.000000
  0.437500  0.312500  0.375000      2.000000
  0.500000  0.312500  0.375000      2.000000
 -0.437500  0.312500  0.375000      2.000000
 -0.375000  0.312500  0.375000      2.000000
 -0.312500  0.312500  0.375000      2.000000
 -0.250000  0.312500  0.375000      2.000000
 -0.187500  0.312500  0.375000      2.000000
 -0.125000  0.312500  0.375000      2.000000
 -0.062500  0.312500  0.375000      2.000000
  0.000000  0.375000  0.375000      2.000000
  0.062500  0.375000  0.375000      2.000000
  0.125000  0.375000  0.375000      2.000000
  0.187500  0.375000  0.375000      2.000000
  0.250000  0.375000  0.375000      2.000000
  0.312500  0.375000  0.375000      2.000000
  0.375000  0.375000  0.375000      2.000000
  0.437500  0.375000  0.375000      2.000000
  0.500000  0.375000  0.375000      2.000000
 -0.437500  0.375000  0.375000      2.000000
 -0.375000  0.375000  0.375000      2.000000
 -0.312500  0.375000  0.375000      2.000000
 -0.250000  0.375000  0.375000      2.000000
 -0.187500  0.375000  0.375000      2.000000
 -0.125000  0.375000  0.375000      2.000000
 -0.062500  0.375000  0.375000      2.000000
  0.000000  0.437500  0.375000      2.000000
  0.062500  0.437500  0.375000      2.000000
  0.125000  0.437500  0.375000      2.000000
  0.187500  0.437500  0.375000      2.000000
  0.250000  0.437500  0.375000      2.000000
  0.312500  0.437500  0.375000      2.000000
  0.375000  0.437500  0.375000      2.000000
  0.437500  0.437500  0.375000      2.000000
  0.500000  0.437500  0.375000      2.000000
 -0.437500  0.437500  0.375000      2.000000
 -0.375000  0.437500  0.375000      2.000000
 -0.312500  0.437500  0.375000      2.000000
 -0.250000  0.437500  0.375000      2.000000
 -0.187500  0.437500  0.375000      2.000000
 -0.125000  0.437500  0.375000      2.000000
 -0.062500  0.437500  0.375000      2.000000
  0.000000  0.500000  0.375000      2.000000
  0.062500  0.500000  0.375000      2.000000
  0.125000  0.500000  0.375000      2.000000
  0.187500  0.500000  0.375000      2.000000
  0.250000  0.500000  0.375000      2.000000
  0.312500  0.500000  0.375000      2.000000
  0.375000  0.500000  0.375000      2.000000
  0.437500  0.500000  0.375000      2.000000
  0.500000  0.500000  0.375000      2.000000
 -0.437500  0.500000  0.375000      2.000000
 -0.375000  0.500000  0.375000      2.000000
 -0.312500  0.500000  0.375000      2.000000
 -0.250000  0.500000  0.375000      2.000000
 -0.187500  0.500000  0.375000      2.000000
 -0.125000  0.500000  0.375000      2.000000
 -0.062500  0.500000  0.375000      2.000000
  0.000000 -0.437500  0.375000      2.000000
  0.062500 -0.437500  0.375000      2.000000
  0.125000 -0.437500  0.375000      2.000000
  0.187500 -0.437500  0.375000      2.000000
  0.250000 -0.437500  0.375000      2.000000
  0.312500 -0.437500  0.375000      2.000000
  0.375000 -0.437500  0.375000      2.000000
  0.437500 -0.437500  0.375000      2.000000
  0.500000 -0.437500  0.375000      2.000000
 -0.437500 -0.437500  0.375000      2.000000
 -0.375000 -0.437500  0.375000      2.000000
 -0.312500 -0.437500  0.375000      2.000000
 -0.250000 -0.437500  0.375000      2.000000
 -0.187500 -0.437500  0.375000      2.000000
 -0.125000 -0.437500  0.375000      2.000000
 -0.062500 -0.437500  0.375000      2.000000
  0.000000 -0.375000  0.375000      2.000000
  0.062500 -0.375000  0.375000      2.000000
  0.125000 -0.375000  0.375000      2.000000
  0.187500 -0.375000  0.375000      2.000000
  0.250000 -0.375000  0.375000      2.000000
  0.312500 -0.375000  0.375000      2.000000
  0.375000 -0.375000  0.375000      2.000000
  0.437500 -0.375000  0.375000      2.000000
  0.500000 -0.375000  0.375000      2.000000
 -0.437500 -0.375000  0.375000      2.000000
 -0.375000 -0.375000  0.375000      2.000000
 -0.312500 -0.375000  0.375000      2.000000
 -0.250000 -0.375000  0.375000      2.000000
 -0.187500 -0.375000  0.375000      2.000000
 -0.125000 -0.375000  0.375000      2.000000
 -0.062500 -0.375000  0.375000      2.000000
  0.000000 -0.312500  0.375000      2.000000
  0.062500 -0.312500  0.375000      2.000000
  0.125000 -0.312500  0.375000      2.000000
  0.187500 -0.312500  0.375000      2.000000
  0.250000 -0.312500  0.375000      2.000000
  0.312500 -0.312500  0.375000      2.000000
  0.375000 -0.312500  0.375000      2.000000
  0.437500 -0.312500  0.375000      2.000000
  0.500000 -0.312500  0.375000      2.000000
 -0.437500 -0.312500  0.375000      2.000000
 -0.375000 -0.312500  0.375000      2.000000
 -0.312500 -0.312500  0.375000      2.000000
 -0.250000 -0.312500  0.375000      2.000000
 -0.187500 -0.312500  0.375000      2.000000
 -0.125000 -0.312500  0.375000      2.000000
 -0.062500 -0.312500  0.375000      2.000000
  0.000000 -0.250000  0.375000      2.000000
  0.062500 -0.250000  0.375000      2.000000
  0.125000 -0.250000  0.375000      2.000000
  0.187500 -0.250000  0.375000      2.000000
  0.250000 -0.250000  0.375000      2.000000
  0.312500 -0.250000  0.375000      2.000000
[...]
  band No.  band energies     occupation 
      1       2.8302      1.00000
      2       2.8684      1.00000
      3       7.0883      0.00000
      4       7.5210      0.00000
      5       7.7809      0.00000
      6      14.0255      0.00000
      7      15.5941      0.00000
      8      15.8331      0.00000
      9      22.3978      0.00000
     10      23.1380      0.00000

 k-point  2039 :      -0.3125    0.4375    0.5000
  band No.  band energies     occupation 
      1       3.0291      1.00000
      2       3.1120      1.00000
      3       6.3708      0.00000
      4       7.0942      0.00000
      5       7.7815      0.00000
      6      12.9301      0.00000
      7      15.2243      0.00000
      8      16.7646      0.00000
      9      23.0348      0.00000
     10      24.6742      0.00000

 k-point  2040 :      -0.2500    0.4375    0.5000
  band No.  band energies     occupation 
      1       3.1847      1.00000
      2       3.4451      1.00000
      3       5.6635      0.06912
      4       6.5968      0.00000
      5       7.8260      0.00000
      6      11.8216      0.00000
      7      14.7535      0.00000
      8      18.0271      0.00000
      9      23.5254      0.00000
     10      26.8253      0.00000

 k-point  2041 :      -0.1875    0.4375    0.5000
  band No.  band energies     occupation 
      1       3.0644      1.00000
      2       3.8996      1.00000
      3       5.0777      0.96899
      4       6.3602      0.00000
      5       7.8741      0.00000
      6      10.7072      0.00000
      7      14.4271      0.00000
      8      19.4061      0.00000
      9      23.9957      0.00000
     10      29.3752      0.00000

 k-point  2042 :      -0.1250    0.4375    0.5000
  band No.  band energies     occupation 
      1       2.6972      1.00000
      2       4.4485      1.00000
      3       4.6092      1.00991
      4       6.4995      0.00000
      5       7.8971      0.00000
      6       9.6353      0.00000
      7      14.2423      0.00000
      8      20.7964      0.00000
      9      24.5047      0.00000
     10      31.8601      0.00000

 k-point  2043 :      -0.0625    0.4375    0.5000
  band No.  band energies     occupation 
      1       2.3229      1.00000
      2       4.2230      1.00000
      3       5.1124      0.90525
      4       6.7860      0.00000
      5       7.8110      0.00000
      6       8.7453      0.00000
      7      14.1523      0.00000
      8      22.0796      0.00000
      9      24.9748      0.00000
     10      30.5221      0.00000

 k-point  2044 :       0.0000    0.5000    0.5000
  band No.  band energies     occupation 
      1       2.0416      1.00000
      2       4.0108      1.00000
      3       6.0708     -0.07386
      4       7.0038      0.00000
      5       7.3540      0.00000
      6       8.1217      0.00000
      7      13.9166      0.00000
      8      23.5400      0.00000
      9      25.6979      0.00000
     10      28.9545      0.00000

 k-point  2045 :       0.0625    0.5000    0.5000
  band No.  band energies     occupation 
      1       2.1556      1.00000
      2       4.1143      1.00000
      3       5.5858      0.26668
      4       6.8901      0.00000
      5       7.9457      0.00000
      6       8.1105      0.00000
      7      13.9218      0.00000
      8      23.4685      0.00000
      9      24.6572      0.00000
     10      30.1263      0.00000

 k-point  2046 :       0.1250    0.5000    0.5000
  band No.  band energies     occupation 
      1       2.4669      1.00000
      2       4.4191      1.00000
      3       4.8535      1.04808
      4       6.6041      0.00000
      5       8.0787      0.00000
      6       8.9950      0.00000
      7      13.9450      0.00000
      8      22.9017      0.00000
      9      23.2930      0.00000
     10      32.2751      0.00000

 k-point  2047 :       0.1875    0.5000    0.5000
  band No.  band energies     occupation 
      1       2.8650      1.00000
      2       4.1897      1.00000
      3       4.9072      1.03965
      4       6.3104      0.00000
      5       8.0313      0.00000
      6      10.1761      0.00000
      7      14.0080      0.00000
      8      21.1268      0.00000
      9      23.0782      0.00000
     10      30.9294      0.00000

 k-point  2048 :       0.2500    0.5000    0.5000
  band No.  band energies     occupation 
      1       3.1348      1.00000
      2       3.6377      1.00000
      3       5.5453      0.28323
      4       6.2650      0.00000
      5       7.9757      0.00000
      6      11.4276      0.00000
      7      14.1436      0.00000
      8      19.4513      0.00000
      9      22.8525      0.00000
     10      28.1959      0.00000

 k-point  2049 :       0.3125    0.5000    0.5000
  band No.  band energies     occupation 
      1       3.1121      1.00000
      2       3.2076      1.00000
      3       6.2787     -0.03162
      4       6.6216      0.00000
      5       7.9205      0.00000
      6      12.7062      0.00000
      7      14.3913      0.00000
      8      17.9331      0.00000
      9      22.6006      0.00000
     10      25.7931      0.00000

 k-point  2050 :       0.3750    0.5000    0.5000
  band No.  band energies     occupation 
      1       2.9015      1.00000
      2       2.9139      1.00000
      3       7.0152      0.00000
      4       7.1873      0.00000
      5       7.8738      0.00000
      6      13.9413      0.00000
      7      14.7703      0.00000
      8      16.6512      0.00000
      9      22.2803      0.00000
     10      23.7744      0.00000

 k-point  2051 :       0.4375    0.5000    0.5000
  band No.  band energies     occupation 
      1       2.7188      1.00000
      2       2.7294      1.00000
      3       7.6022      0.00000
      4       7.6565      0.00000
      5       7.8428      0.00000
      6      14.9647      0.00000
      7      15.1969      0.00000
      8      15.7440      0.00000
      9      21.9009      0.00000
     10      22.2897      0.00000

 k-point  2052 :       0.5000    0.5000    0.5000
  band No.  band energies     occupation 
      1       2.6580      1.00000
      2       2.6588      1.00000
      3       7.8317      0.00000
      4       7.8326      0.00000
      5       7.8368      0.00000
      6      15.4041      0.00000
      7      15.4050      0.00000
      8      15.4060      0.00000
      9      21.6980      0.00000
     10      21.6985      0.00000


--------------------------------------------------------------------------------------------------------


 soft charge-density along one line, spin component           1
         0         1         2         3         4         5         6         7         8         9
 total charge-density along one line
 
 soft charge-density along one line, spin component           2
         0         1         2         3         4         5         6         7         8         9
 total charge-density along one line
 
 pseudopotential strength for first ion, spin component:           1
 -5.917   0.000   0.021   0.000   0.012  -6.439   0.000   0.021
  0.000  -5.900  -0.000   0.024  -0.000   0.000  -6.422  -0.000
  0.021  -0.000  -5.895  -0.000  -0.007   0.021  -0.000  -6.417
  0.000   0.024  -0.000  -5.917   0.000   0.000   0.024  -0.000
  0.012  -0.000  -0.007   0.000  -5.887   0.012  -0.000  -0.007
 -6.439   0.000   0.021   0.000   0.012  -6.919   0.000   0.021
  0.000  -6.422  -0.000   0.024  -0.000   0.000  -6.902  -0.000
  0.021  -0.000  -6.417  -0.000  -0.007   0.021  -0.000  -6.897
  0.000   0.024  -0.000  -6.439   0.000   0.000   0.024  -0.000
  0.012  -0.000  -0.007   0.000  -6.409   0.012  -0.000  -0.007
  0.000  -0.000  -0.000  -0.000  -0.000   0.000  -0.000  -0.000
  0.000  -0.000  -0.000  -0.000  -0.000   0.000  -0.000  -0.000
  0.000  -0.000  -0.000  -0.000  -0.000   0.000  -0.000  -0.000
 -0.000   0.000  -0.000   0.000   0.000  -0.000   0.000  -0.000
  0.000  -0.000  -0.000  -0.000   0.000   0.000  -0.000  -0.000
  0.000  -0.000  -0.000  -0.000  -0.000   0.000  -0.000  -0.000
 -0.000   0.000  -0.000   0.000   0.000  -0.000   0.000  -0.000
  0.000  -0.000  -0.000  -0.000   0.000   0.000  -0.000  -0.000
 pseudopotential strength for first ion, spin component:           2
 -4.178   0.001  -0.064   0.001  -0.037  -4.753   0.001  -0.063
  0.001  -4.229   0.001  -0.073  -0.001   0.001  -4.803   0.001
 -0.064   0.001  -4.242   0.001   0.022  -0.063   0.001  -4.816
  0.001  -0.073   0.001  -4.177   0.001   0.001  -0.073   0.001
 -0.037  -0.001   0.022   0.001  -4.269  -0.036  -0.001   0.022
 -4.753   0.001  -0.063   0.001  -0.036  -5.284   0.001  -0.063
  0.001  -4.803   0.001  -0.073  -0.001   0.001  -5.334   0.001
 -0.063   0.001  -4.816   0.001   0.022  -0.063   0.001  -5.346
  0.001  -0.073   0.001  -4.751   0.001   0.001  -0.072   0.001
 -0.036  -0.001   0.022   0.001  -4.843  -0.036  -0.001   0.022
 -0.000  -0.000  -0.000  -0.000  -0.000  -0.000  -0.000  -0.000
 -0.000  -0.001  -0.000  -0.001  -0.000  -0.000  -0.001  -0.000
  0.000  -0.000  -0.000   0.000  -0.000   0.000  -0.000  -0.000
  0.000   0.000  -0.000   0.000  -0.000   0.000   0.000  -0.000
  0.000   0.000  -0.000  -0.000   0.000   0.000   0.000  -0.000
  0.000  -0.000  -0.000   0.000  -0.000   0.000  -0.000  -0.000
  0.000   0.000  -0.000   0.000  -0.000   0.000   0.000  -0.000
  0.000   0.000  -0.000  -0.000   0.000   0.000   0.000  -0.000
 total augmentation occupancy for first ion, spin component:           1
  1.400   0.000   0.000   0.000   0.000   0.000   0.000   0.000   0.000   0.000   0.000   0.000   0.000   0.000   0.000   0.000
  0.000   1.400   0.000   0.000   0.000   0.000   0.000   0.000   0.000   0.000   0.000   0.000   0.000   0.000   0.000   0.000
  0.000   0.000   1.400   0.000   0.000   0.000   0.000   0.000   0.000   0.000   0.000   0.000   0.000   0.000   0.000   0.000
  0.000   0.000   0.000   1.400   0.000   0.000   0.000   0.000   0.000   0.000   0.000   0.000   0.000   0.000   0.000   0.000
  0.000   0.000   0.000   0.000   1.400   0.000   0.000   0.000   0.000   0.000   0.000   0.000   0.000   0.000   0.000   0.000
  0.000   0.000   0.000   0.000   0.000   0.000   0.000   0.000   0.000   0.000   0.000   0.000   0.000   0.000   0.000   0.000
  0.000   0.000   0.000   0.000   0.000   0.000   0.000   0.000   0.000   0.000   0.000   0.000   0.000   0.000   0.000   0.000
  0.000   0.000   0.000   0.000   0.000   0.000   0.000   0.000   0.000   0.000   0.000   0.000   0.000   0.000   0.000   0.000
  0.000   0.000   0.000   0.000   0.000   0.000   0.000   0.000   0.000   0.000   0.000   0.000   0.000   0.000   0.000   0.000
  0.000   0.000   0.000   0.000   0.000   0.000   0.000   0.000   0.000   0.000   0.000   0.000   0.000   0.000   0.000   0.000
  0.000   0.000   0.000   0.000   0.000   0.000   0.000   0.000   0.000   0.000   1.000   0.000   0.000   0.000   0.000   0.000
  0.000   0.000   0.000   0.000   0.000   0.000   0.000   0.000   0.000   0.000   0.000   0.000   0.000   0.000   0.000   0.000
  0.000   0.000   0.000   0.000   0.000   0.000   0.000   0.000   0.000   0.000   0.000   0.000   0.000   0.000   0.000   0.000
  0.000   0.000   0.000   0.000   0.000   0.000   0.000   0.000   0.000   0.000   0.000   0.000   0.000   0.000   0.000   0.000
  0.000   0.000   0.000   0.000   0.000   0.000   0.000   0.000   0.000   0.000   0.000   0.000   0.000   0.000   0.000   0.000
  0.000   0.000   0.000   0.000   0.000   0.000   0.000   0.000   0.000   0.000   0.000   0.000   0.000   0.000   0.000   0.000
  0.000   0.000   0.000   0.000   0.000   0.000   0.000   0.000   0.000   0.000   0.000   0.000   0.000   0.000   0.000   0.000
  0.000   0.000   0.000   0.000   0.000   0.000   0.000   0.000   0.000   0.000   0.000   0.000   0.000   0.000   0.000   0.000
 total augmentation occupancy for first ion, spin component:           2
  0.700   0.000   0.000   0.000   0.000   0.000   0.000   0.000   0.000   0.000   0.000   0.000   0.000   0.000   0.000   0.000
  0.000   0.700   0.000   0.000   0.000   0.000   0.000   0.000   0.000   0.000   0.000   0.000   0.000   0.000   0.000   0.000
  0.000   0.000   0.700   0.000   0.000   0.000   0.000   0.000   0.000   0.000   0.000   0.000   0.000   0.000   0.000   0.000
  0.000   0.000   0.000   0.700   0.000   0.000   0.000   0.000   0.000   0.000   0.000   0.000   0.000   0.000   0.000   0.000
  0.000   0.000   0.000   0.000   0.700   0.000   0.000   0.000   0.000   0.000   0.000   0.000   0.000   0.000   0.000   0.000
  0.000   0.000   0.000   0.000   0.000   0.000   0.000   0.000   0.000   0.000   0.000   0.000   0.000   0.000   0.000   0.000
  0.000   0.000   0.000   0.000   0.000   0.000   0.000   0.000   0.000   0.000   0.000   0.000   0.000   0.000   0.000   0.000
  0.000   0.000   0.000   0.000   0.000   0.000   0.000   0.000   0.000   0.000   0.000   0.000   0.000   0.000   0.000   0.000
  0.000   0.000   0.000   0.000   0.000   0.000   0.000   0.000   0.000   0.000   0.000   0.000   0.000   0.000   0.000   0.000
  0.000   0.000   0.000   0.000   0.000   0.000   0.000   0.000   0.000   0.000   0.000   0.000   0.000   0.000   0.000   0.000
  0.000   0.000   0.000   0.000   0.000   0.000   0.000   0.000   0.000   0.000   0.500   0.000   0.000   0.000   0.000   0.000
  0.000   0.000   0.000   0.000   0.000   0.000   0.000   0.000   0.000   0.000   0.000   0.000   0.000   0.000   0.000   0.000
  0.000   0.000   0.000   0.000   0.000   0.000   0.000   0.000   0.000   0.000   0.000   0.000   0.000   0.000   0.000   0.000
  0.000   0.000   0.000   0.000   0.000   0.000   0.000   0.000   0.000   0.000   0.000   0.000   0.000   0.000   0.000   0.000
  0.000   0.000   0.000   0.000   0.000   0.000   0.000   0.000   0.000   0.000   0.000   0.000   0.000   0.000   0.000   0.000
  0.000   0.000   0.000   0.000   0.000   0.000   0.000   0.000   0.000   0.000   0.000   0.000   0.000   0.000   0.000   0.000
  0.000   0.000   0.000   0.000   0.000   0.000   0.000   0.000   0.000   0.000   0.000   0.000   0.000   0.000   0.000   0.000
  0.000   0.000   0.000   0.000   0.000   0.000   0.000   0.000   0.000   0.000   0.000   0.000   0.000   0.000   0.000   0.000


------------------------ aborting loop because EDIFF is reached ----------------------------------------


 


 total charge     
 
# of ion       s       p       d       tot
------------------------------------------
    1        0.470   0.507   6.220   7.197
 


 magnetization (x)
 
# of ion       s       p       d       tot
------------------------------------------
    1       -0.016  -0.058   2.360   2.286
 
    CHARGE:  cpu time    1.5108: real time    1.5117
    FORLOC:  cpu time    0.0010: real time    0.0010
    FORNL :  cpu time   20.0110: real time   20.0137
    STRESS:  cpu time   58.4761: real time   58.5043
    FORCOR:  cpu time    0.0530: real time    0.0525
    FORHAR:  cpu time    0.0060: real time    0.0062
    OFIELD:  cpu time    0.0000: real time    0.0004

  FORCE on cell =-STRESS in cart. coord.  units (eV):
  Direction    XX          YY          ZZ          XY          YZ          ZX
  --------------------------------------------------------------------------------------
  Alpha Z    58.69092    58.69092    58.69092
  Ewald    -195.00840  -195.00843  -195.00856    -0.00004    -0.00011    -0.00008
  Hartree    32.67598    32.67467    32.67621    -0.00226    -0.00268    -0.00187
  E(xc)     -39.64277   -39.64276   -39.64273     0.00011     0.00036     0.00024
  Local      58.02189    58.02514    58.02080     0.00562     0.00661     0.00462
  n-local   -26.30982   -26.31165   -26.31191    -0.00297    -0.00262    -0.00176
  augment    38.81780    38.81744    38.82070    -0.00015     0.00086     0.00053
  Kinetic    72.40875    72.40862    72.41410     0.00001     0.00136     0.00101
  Fock        0.00000     0.00000     0.00000     0.00000     0.00000     0.00000
  -------------------------------------------------------------------------------------
  Total      -0.34565    -0.34605    -0.34046     0.00031     0.00378     0.00268
  in kB     -47.02713   -47.08199   -46.32206     0.04279     0.51372     0.36427
  external pressure =      -46.81 kB  Pullay stress =        0.00 kB


 VOLUME and BASIS-vectors are now :
 -----------------------------------------------------------------------------
  energy-cutoff  :      520.00
  volume of cell :       11.78
      direct lattice vectors                 reciprocal lattice vectors
     2.482399941  0.000000000  0.000000000     0.402835975  0.142423854  0.246685088
    -0.827465765  2.340429421  0.000000000     0.000000000  0.427272017  0.246685088
    -0.827465765 -1.170212839  2.026872415     0.000000000  0.000000000  0.493370965

  length of vectors
     2.482399941  2.482399940  2.482399940     0.493370965  0.493370965  0.493370965


 FORCES acting on ions
    electron-ion (+dipol)            ewald-force                    non-local-force                 convergence-correction
 -----------------------------------------------------------------------------------------------
   0.330E-05 0.737E-06 -.670E-05   -.460E-15 0.137E-14 -.131E-15   -.268E-05 -.357E-06 0.704E-05   -.199E-05 -.344E-06 0.421E-05
 -----------------------------------------------------------------------------------------------
   0.330E-05 0.737E-06 -.670E-05   -.460E-15 0.137E-14 -.131E-15   -.268E-05 -.357E-06 0.704E-05   -.199E-05 -.344E-06 0.421E-05
 
 
 POSITION                                       TOTAL-FORCE (eV/Angst)
 -----------------------------------------------------------------------------------
      0.00000      0.00000      0.00000        -0.000001      0.000000      0.000005
 -----------------------------------------------------------------------------------
    total drift:                               -0.000001      0.000000      0.000005


--------------------------------------------------------------------------------------------------------



  FREE ENERGIE OF THE ION-ELECTRON SYSTEM (eV)
  ---------------------------------------------------
  free  energy   TOTEN  =        -8.21801029 eV

  energy  without entropy=       -8.21801029  energy(sigma->0) =       -8.21801029
 


--------------------------------------------------------------------------------------------------------


    POTLOK:  cpu time    0.0630: real time    0.0627


--------------------------------------------------------------------------------------------------------


     LOOP+:  cpu time  342.7059: real time  342.8889
    4ORBIT:  cpu time    0.0000: real time    0.0000
 


 total charge     
 
# of ion       s       p       d       tot
------------------------------------------
    1        0.470   0.507   6.220   7.197
 


 magnetization (x)
 
# of ion       s       p       d       tot
------------------------------------------
    1       -0.016  -0.058   2.360   2.286
 
 BZINTS: Fermi energy:  5.381575;  8.000000 electrons
         Band energy:  26.397946;  BLOECHL correction: -0.018612

 total amount of memory used by VASP MPI-rank0   264177. kBytes
=======================================================================

   base      :      30000. kBytes
   nonlr-proj:       1292. kBytes
   fftplans  :       1676. kBytes
   grid      :       3981. kBytes
   one-center:         31. kBytes
   wavefun   :     227197. kBytes
 
  
  
 General timing and accounting informations for this job:
 ========================================================
  
                  Total CPU time used (sec):      355.874
                            User time (sec):      351.457
                          System time (sec):        4.417
                         Elapsed time (sec):      356.259
  
                   Maximum memory used (kb):      322344.
                   Average memory used (kb):           0.
  
                          Minor page faults:        12592
                          Major page faults:            0
                 Voluntary context switches:          277
