SQS-NiFe                                
           1
     2.482400    0.000000    0.000000
    -0.827466    2.340429    0.000000
    -0.827466   -1.170213    2.026872
   Fe
   1
Direct configuration=     1
   0.00000000  0.00000000  0.00000000
