       N       E                     dE             d eps       ncg     rms          rms(c)
DAV:   1     0.432393126120E+04    0.43239E+04   -0.22783E+05  8160   0.139E+03
DAV:   2    -0.705596153128E+02   -0.43945E+04   -0.40833E+04  8160   0.326E+02
DAV:   3    -0.441878517450E+03   -0.37132E+03   -0.31540E+03  8520   0.134E+02
DAV:   4    -0.456918681719E+03   -0.15040E+02   -0.14660E+02  8661   0.292E+01
DAV:   5    -0.457178042942E+03   -0.25936E+00   -0.25905E+00  9165   0.330E+00    0.322E-01
RMM:   6    -0.457280903716E+03   -0.10286E+00   -0.13372E-01  8391   0.906E-01    0.102E+00
RMM:   7    -0.457285905160E+03   -0.50014E-02   -0.28600E-02 12009   0.251E-01    0.110E+00
RMM:   8    -0.457281297519E+03    0.46076E-02   -0.39217E-03  8509   0.139E-01    0.643E-01
RMM:   9    -0.457279596782E+03    0.17007E-02   -0.18104E-03  8587   0.976E-02    0.183E-01
RMM:  10    -0.457279876254E+03   -0.27947E-03   -0.56115E-04  8644   0.508E-02    0.216E-01
RMM:  11    -0.457279721984E+03    0.15427E-03   -0.23003E-04  8599   0.351E-02    0.937E-02
RMM:  12    -0.457279732515E+03   -0.10531E-04   -0.61669E-05  9435   0.146E-02    0.823E-02
RMM:  13    -0.457279782002E+03   -0.49487E-04   -0.19004E-05  9251   0.823E-03    0.651E-02
RMM:  14    -0.457279794699E+03   -0.12697E-04   -0.53900E-06  7718   0.485E-03    0.585E-02
RMM:  15    -0.457279862109E+03   -0.67410E-04   -0.62100E-06  7435   0.564E-03    0.452E-02
RMM:  16    -0.457279882624E+03   -0.20514E-04   -0.26164E-06  6055   0.399E-03    0.381E-02
RMM:  17    -0.457279934850E+03   -0.52226E-04   -0.46302E-06  6797   0.474E-03    0.270E-02
RMM:  18    -0.457279949964E+03   -0.15115E-04   -0.19314E-06  5642   0.361E-03    0.201E-02
RMM:  19    -0.457279961507E+03   -0.11542E-04   -0.14028E-06  5464   0.252E-03    0.155E-02
RMM:  20    -0.457279965360E+03   -0.38535E-05   -0.73941E-07  5103   0.222E-03    0.119E-02
RMM:  21    -0.457279956526E+03    0.88340E-05   -0.83513E-07  5117   0.189E-03    0.830E-03
RMM:  22    -0.457279950880E+03    0.56458E-05   -0.33339E-07  5006   0.147E-03    0.630E-03
RMM:  23    -0.457279941059E+03    0.98216E-05   -0.28267E-07  4879   0.123E-03    0.438E-03
RMM:  24    -0.457279938239E+03    0.28194E-05   -0.11265E-07  4834   0.875E-04    0.334E-03
RMM:  25    -0.457279937756E+03    0.48325E-06   -0.64111E-08  4649   0.634E-04
   1 F= -.47131324E+03 E0= -.47131324E+03  d E =0.000000E+00  mag=   138.7764
