 vasp.5.4.4.18Apr17-6-g9f103f2a35 (build Sep 06 2021 19:49:22) complex          
  
 executed on             LinuxIFC date 2022.01.05  12:17:40
 running on   72 total cores
 distrk:  each k-point on   72 cores,    1 groups
 distr:  one band on NCORES_PER_BAND=  24 cores,    3 groups


--------------------------------------------------------------------------------------------------------


 INCAR:
 POTCAR:    PAW_PBE Fe 06Sep2000                  
 POTCAR:    PAW_PBE Ni 02Aug2007                  

 ----------------------------------------------------------------------------- 
|                                                                             |
|           W    W    AA    RRRRR   N    N  II  N    N   GGGG   !!!           |
|           W    W   A  A   R    R  NN   N  II  NN   N  G    G  !!!           |
|           W    W  A    A  R    R  N N  N  II  N N  N  G       !!!           |
|           W WW W  AAAAAA  RRRRR   N  N N  II  N  N N  G  GGG   !            |
|           WW  WW  A    A  R   R   N   NN  II  N   NN  G    G                |
|           W    W  A    A  R    R  N    N  II  N    N   GGGG   !!!           |
|                                                                             |
|      For optimal performance we recommend to set                            |
|        NCORE= 4 - approx SQRT( number of cores)                             |
|      NCORE specifies how many cores store one orbital (NPAR=cpu/NCORE).     |
|      This setting can  greatly improve the performance of VASP for DFT.     |
|      The default,   NCORE=1            might be grossly inefficient         |
|      on modern multi-core architectures or massively parallel machines.     |
|      Do your own testing !!!!                                               |
|      Unfortunately you need to use the default for GW and RPA calculations. |
|      (for HF NCORE is supported but not extensively tested yet)             |
|                                                                             |
 ----------------------------------------------------------------------------- 

 POTCAR:    PAW_PBE Fe 06Sep2000                  
   VRHFIN =Fe:  d7 s1                                                           
   LEXCH  = PE                                                                  
   EATOM  =   594.3153 eV,   43.6809 Ry                                         
                                                                                
   TITEL  = PAW_PBE Fe 06Sep2000                                                
   LULTRA =        F    use ultrasoft PP ?                                      
   IUNSCR =        1    unscreen: 0-lin 1-nonlin 2-no                           
   RPACOR =    2.000    partial core radius                                     
   POMASS =   55.847; ZVAL   =    8.000    mass and valenz                      
   RCORE  =    2.300    outmost cutoff radius                                   
   RWIGS  =    2.460; RWIGS  =    1.302    wigner-seitz radius (au A)           
   ENMAX  =  267.882; ENMIN  =  200.911 eV                                      
   RCLOC  =    1.701    cutoff for local pot                                    
   LCOR   =        T    correct aug charges                                     
   LPAW   =        T    paw PP                                                  
   EAUG   =  511.368                                                            
   DEXC   =    0.000                                                            
   RMAX   =    2.356    core radius for proj-oper                               
   RAUG   =    1.300    factor for augmentation sphere                          
   RDEP   =    2.442    radius for radial grids                                 
   RDEPT  =    1.890    core radius for aug-charge                              
                                                                                
   Atomic configuration                                                         
    9 entries                                                                   
     n  l   j            E        occ.                                          
     1  0  0.50     -6993.8440   2.0000                                         
     2  0  0.50      -814.6047   2.0000                                         
     2  1  1.50      -693.3689   6.0000                                         
     3  0  0.50       -89.4732   2.0000                                         
     3  1  1.50       -55.6373   6.0000                                         
     3  2  2.50        -3.8151   7.0000                                         
     4  0  0.50        -4.2551   1.0000                                         
     4  1  1.50        -3.4015   0.0000                                         
     4  3  2.50        -1.3606   0.0000                                         
   Description                                                                  
     l       E           TYP  RCUT    TYP  RCUT                                 
     2     -3.8151135     23  2.300                                             
     2     -5.1756961     23  2.300                                             
     0     -4.2550963     23  2.300                                             
     0      7.2035603     23  2.300                                             
     1     -2.7211652     23  2.300                                             
     1     18.4316424     23  2.300                                             
  local pseudopotential read in
  partial core-charges read in
  partial kinetic energy density read in
  atomic valenz-charges read in
  non local Contribution for L=           2  read in
    real space projection operators read in
  non local Contribution for L=           2  read in
    real space projection operators read in
  non local Contribution for L=           0  read in
    real space projection operators read in
  non local Contribution for L=           0  read in
    real space projection operators read in
  non local Contribution for L=           1  read in
    real space projection operators read in
  non local Contribution for L=           1  read in
    real space projection operators read in
    PAW grid and wavefunctions read in
 
   number of l-projection  operators is LMAX  =           6
   number of lm-projection operators is LMMAX =          18
 
 POTCAR:    PAW_PBE Ni 02Aug2007                  
   VRHFIN =Ni:                                                                  
   LEXCH  = PE                                                                  
   EATOM  =  1077.6739 eV,   79.2068 Ry                                         
                                                                                
   TITEL  = PAW_PBE Ni 02Aug2007                                                
   LULTRA =        F    use ultrasoft PP ?                                      
   IUNSCR =        1    unscreen: 0-lin 1-nonlin 2-no                           
   RPACOR =    2.000    partial core radius                                     
   POMASS =   58.690; ZVAL   =   10.000    mass and valenz                      
   RCORE  =    2.300    outmost cutoff radius                                   
   RWIGS  =    2.430; RWIGS  =    1.286    wigner-seitz radius (au A)           
   ENMAX  =  269.532; ENMIN  =  202.149 eV                                      
   RCLOC  =    1.201    cutoff for local pot                                    
   LCOR   =        T    correct aug charges                                     
   LPAW   =        T    paw PP                                                  
   EAUG   =  544.565                                                            
   DEXC   =    0.000                                                            
   RMAX   =    2.357    core radius for proj-oper                               
   RAUG   =    1.300    factor for augmentation sphere                          
   RDEP   =    2.390    radius for radial grids                                 
   RDEPT  =    1.838    core radius for aug-charge                              
                                                                                
   Atomic configuration                                                         
    9 entries                                                                   
     n  l   j            E        occ.                                          
     1  0  0.50     -8206.4253   2.0000                                         
     2  0  0.50      -976.1748   2.0000                                         
     2  1  1.50      -839.0571   6.0000                                         
     3  0  0.50      -105.9991   2.0000                                         
     3  1  1.50       -66.4603   6.0000                                         
     3  2  2.50        -4.6458   9.0000                                         
     4  0  0.50        -4.4926   1.0000                                         
     4  1  1.50        -4.0817   0.0000                                         
     4  3  2.50        -1.3606   0.0000                                         
   Description                                                                  
     l       E           TYP  RCUT    TYP  RCUT                                 
     2     -4.6457903     23  2.300                                             
     2     -6.0063729     23  2.300                                             
     0     -4.4925590     23  2.300                                             
     0      5.0102601     23  2.300                                             
     1     -2.7211652     23  2.300                                             
     1     16.5183231     23  2.300                                             
  local pseudopotential read in
  partial core-charges read in
  partial kinetic energy density read in
  atomic valenz-charges read in
  non local Contribution for L=           2  read in
    real space projection operators read in
  non local Contribution for L=           2  read in
    real space projection operators read in
  non local Contribution for L=           0  read in
    real space projection operators read in
  non local Contribution for L=           0  read in
    real space projection operators read in
  non local Contribution for L=           1  read in
    real space projection operators read in
  non local Contribution for L=           1  read in
    real space projection operators read in
    PAW grid and wavefunctions read in
 
   number of l-projection  operators is LMAX  =           6
   number of lm-projection operators is LMMAX =          18
 
 Optimization of the real space projectors (new method)

 maximal supplied QI-value         = 16.25
 optimisation between [QCUT,QGAM] = [ 11.54, 23.24] = [ 37.28,151.24] Ry 
 Optimized for a Real-space Cutoff    1.53 Angstroem

   l    n(q)    QCUT    max X(q) W(low)/X(q) W(high)/X(q)  e(spline) 
   2     10    11.539    80.901    0.11E-03    0.14E-03    0.21E-06
   2     10    11.539    75.754    0.11E-03    0.14E-03    0.22E-06
   0     11    11.539    58.752    0.52E-04    0.18E-04    0.33E-06
   0     11    11.539    30.679    0.44E-04    0.16E-04    0.30E-06
   1     10    11.539    17.977    0.53E-04    0.29E-04    0.13E-06
   1     10    11.539    13.559    0.44E-04    0.25E-04    0.11E-06
 Optimization of the real space projectors (new method)

 maximal supplied QI-value         = 16.25
 optimisation between [QCUT,QGAM] = [ 11.54, 23.24] = [ 37.28,151.24] Ry 
 Optimized for a Real-space Cutoff    1.45 Angstroem

   l    n(q)    QCUT    max X(q) W(low)/X(q) W(high)/X(q)  e(spline) 
   2      9    11.539    60.317    0.19E-03    0.47E-04    0.16E-06
   2      9    11.539    55.921    0.19E-03    0.48E-04    0.16E-06
   0     10    11.539    51.690    0.80E-04    0.50E-04    0.24E-06
   0     10    11.539    30.015    0.73E-04    0.45E-04    0.22E-06
   1     10    11.539    18.849    0.87E-04    0.16E-03    0.71E-07
   1     10    11.539    14.624    0.73E-04    0.13E-03    0.64E-07
  PAW_PBE Fe 06Sep2000                  :
 energy of atom  1       EATOM= -594.3153
 kinetic energy error for atom=    0.0026 (will be added to EATOM!!)
  PAW_PBE Ni 02Aug2007                  :
 energy of atom  2       EATOM=-1077.6739
 kinetic energy error for atom=    0.0030 (will be added to EATOM!!)
 
 
 POSCAR: POSCAR                                  
  positions in direct lattice
  velocities in cartesian coordinates
 exchange correlation table for  LEXCH =        8
   RHO(1)=    0.500       N(1)  =     2000
   RHO(2)=  100.500       N(2)  =     4000
 


--------------------------------------------------------------------------------------------------------


 ion  position               nearest neighbor table
   1  0.003  0.998  0.289-   4 2.50  49 2.50  54 2.52   3 2.53   9 2.53  50 2.53   6 2.53  51 2.54
                            64 2.55  28 2.56  36 2.56  44 2.57
   2  0.502  0.001  0.291-  52 2.49  50 2.50  53 2.50  62 2.52  15 2.52  46 2.53  61 2.53  32 2.54
                            11 2.55   3 2.56  29 2.56  12 2.57
   3  0.753  0.996  0.293-  61 2.47  64 2.49  14 2.49  51 2.51  48 2.51   1 2.53  54 2.53  32 2.55
                            53 2.55   2 2.56  36 2.56  15 2.59
   4  0.251  0.245  0.288-   1 2.50  57 2.50  50 2.51   9 2.51   8 2.52  18 2.52  52 2.52   6 2.52
                            24 2.53  17 2.55  51 2.56  20 2.64
   5  0.089  0.161  0.095-   7 2.41  43 2.47   9 2.49  63 2.54  19 2.55  57 2.59  54 2.60  55 2.62
                            13 2.68
   6  0.086  0.167  0.386-  64 2.50  56 2.51   4 2.52  14 2.53  51 2.53   8 2.53   1 2.53  20 2.54
                            44 2.59
   7  0.330  0.166  0.099-   5 2.41   9 2.42  24 2.43  12 2.47  19 2.48  45 2.48  43 2.49  10 2.57
                            22 2.59
   8  0.335  0.165  0.385-  52 2.49   4 2.52  50 2.52  44 2.53   6 2.53  46 2.54  11 2.56  23 2.57
                            20 2.57
   9  0.168  0.081  0.192-   7 2.42  43 2.46   5 2.49  47 2.50   4 2.51  24 2.52   1 2.53  12 2.54
                            50 2.54  49 2.54  57 2.55  54 2.55
  10  0.583  0.166  0.099-  12 2.43  13 2.45  27 2.46  15 2.49  25 2.50  60 2.52  45 2.54   7 2.57
                            22 2.58
  11  0.594  0.177  0.386-  26 2.45  53 2.48  52 2.50  14 2.50  23 2.55  61 2.55   2 2.55   8 2.56
                            46 2.58
  12  0.422  0.087  0.192-  10 2.43  24 2.43   7 2.47  27 2.47  45 2.49  15 2.50  62 2.52  52 2.53
                             9 2.54  50 2.54   2 2.57  47 2.61
  13  0.827  0.167  0.098-  10 2.45  15 2.47  60 2.51  58 2.53  25 2.53  54 2.56  55 2.56  63 2.59
                             5 2.68
  14  0.837  0.169  0.385-  61 2.48   3 2.49  11 2.50  51 2.50  56 2.51  53 2.51   6 2.53  64 2.53
                            26 2.54
  15  0.667  0.083  0.194-  13 2.47  10 2.49  53 2.50  12 2.50  54 2.52   2 2.52  60 2.53  58 2.54
                            62 2.54  48 2.56  27 2.58   3 2.59
  16  0.993  0.490  0.294-  56 2.44  53 2.46  51 2.49  21 2.51  58 2.53  28 2.53  17 2.54  26 2.55
                            35 2.58  42 2.60  29 2.60  31 2.66
  17  0.248  0.495  0.290-  56 2.48  57 2.49  51 2.52  18 2.53  32 2.54  59 2.54  16 2.54  20 2.55
                            35 2.55   4 2.55  29 2.56  34 2.66
  18  0.498  0.496  0.291-   4 2.52  59 2.52  17 2.53  20 2.53  36 2.54  21 2.54  52 2.54  32 2.55
                            23 2.55  24 2.57  41 2.58  38 2.69
  19  0.339  0.416  0.094-  37 2.46  22 2.48   7 2.48  33 2.53   5 2.55  24 2.58  57 2.59  55 2.60
                            59 2.60
  20  0.336  0.420  0.389-  23 2.49  56 2.51  34 2.52  18 2.53   6 2.54  17 2.55  38 2.57   8 2.57
                             4 2.64
  21  0.746  0.489  0.295-  52 2.46  53 2.47  23 2.49  16 2.51  36 2.53  18 2.54  26 2.56  27 2.59
                            28 2.60  42 2.61  41 2.62  40 2.65
  22  0.586  0.422  0.099-  27 2.43  37 2.45  39 2.46  25 2.46  41 2.47  24 2.47  19 2.48  10 2.58
                             7 2.59
  23  0.585  0.424  0.391-  21 2.49  20 2.49  40 2.52  38 2.54  18 2.55  11 2.55   8 2.57  26 2.57
                            52 2.64
  24  0.420  0.327  0.192-  27 2.41  12 2.43   7 2.43  22 2.47   9 2.52  52 2.52   4 2.53  57 2.56
                            18 2.57  19 2.58  41 2.58  59 2.61
  25  0.827  0.417  0.096-  39 2.45  22 2.46  27 2.47  10 2.50  13 2.53  58 2.54  42 2.58  55 2.59
                            30 2.60
  26  0.836  0.418  0.395-  11 2.45  40 2.49  14 2.54  31 2.54  56 2.55  16 2.55  21 2.56  23 2.57
                            53 2.70
  27  0.662  0.335  0.191-  24 2.41  22 2.43  10 2.46  12 2.47  25 2.47  41 2.48  52 2.55  58 2.56
                            42 2.57  15 2.58  21 2.59  53 2.60
  28  0.003  0.745  0.294-  44 2.46  29 2.47  36 2.52  42 2.53  16 2.53  50 2.55   1 2.56  49 2.57
                            40 2.59  31 2.60  21 2.60  47 2.60
  29  0.249  0.748  0.293-  28 2.47  50 2.50  35 2.51  32 2.52  46 2.53  17 2.56   2 2.56  62 2.56
                            34 2.56  31 2.58  16 2.60  47 2.63
  30  0.086  0.671  0.097-  47 2.46  45 2.48  43 2.48  33 2.52  39 2.52  35 2.53  55 2.55  42 2.55
                            25 2.60
  31  0.090  0.666  0.395-  34 2.49  44 2.50  56 2.52  40 2.54  26 2.54  46 2.55  29 2.58  28 2.60
                            16 2.66
  32  0.497  0.747  0.292-  29 2.52  59 2.53  48 2.53  17 2.54   2 2.54  34 2.54  18 2.55   3 2.55
                            61 2.55  62 2.56  38 2.57  36 2.61
  33  0.330  0.661  0.095-  55 2.49  30 2.52  19 2.53  37 2.53  60 2.56  59 2.57  35 2.60  62 2.61
                            45 2.62
  34  0.339  0.671  0.392-  46 2.48  38 2.49  31 2.49  20 2.52  32 2.54  61 2.56  29 2.56  56 2.57
                            17 2.66
  35  0.164  0.589  0.196-  47 2.46  42 2.47  62 2.51  29 2.51  30 2.53  58 2.53  17 2.55  16 2.58
                            55 2.59  33 2.60  59 2.60  57 2.61
  36  0.753  0.743  0.296-  64 2.51  28 2.52  21 2.53  38 2.53  18 2.54   1 2.56  40 2.56   3 2.56
                            41 2.59  49 2.59  48 2.60  32 2.61
  37  0.580  0.661  0.096-  22 2.45  19 2.46  59 2.52  33 2.53  41 2.54  39 2.54  60 2.56  63 2.57
                            48 2.61
  38  0.587  0.676  0.393-  61 2.48  34 2.49  64 2.51  36 2.53  23 2.54  20 2.57  32 2.57  40 2.60
                            18 2.69
  39  0.832  0.662  0.097-  25 2.45  22 2.46  41 2.47  42 2.51  30 2.52  49 2.53  37 2.54  63 2.54
                            43 2.57
  40  0.839  0.666  0.396-  26 2.49  44 2.51  23 2.52  31 2.54  36 2.56  64 2.57  28 2.59  38 2.60
                            21 2.65
  41  0.672  0.585  0.193-  22 2.47  49 2.47  39 2.47  27 2.48  42 2.49  48 2.50  37 2.54  59 2.55
                            18 2.58  24 2.58  36 2.59  21 2.62
  42  0.919  0.587  0.195-  49 2.43  47 2.47  35 2.47  41 2.49  39 2.51  58 2.52  28 2.53  30 2.55
                            27 2.57  25 2.58  16 2.60  21 2.61
  43  0.086  0.916  0.098-  45 2.43  47 2.44   9 2.46   5 2.47  30 2.48   7 2.49  49 2.53  63 2.54
                            39 2.57
  44  0.089  0.912  0.387-  28 2.46  31 2.50  40 2.51   8 2.53  46 2.54  50 2.55  64 2.55   1 2.57
                             6 2.59
  45  0.327  0.919  0.097-  43 2.43  47 2.47  30 2.48   7 2.48  12 2.49  10 2.54  62 2.56  60 2.59
                            33 2.62
  46  0.342  0.918  0.389-  34 2.48  61 2.49   2 2.53  29 2.53   8 2.54  44 2.54  31 2.55  11 2.58
                            50 2.61
  47  0.163  0.832  0.192-  43 2.44  49 2.45  35 2.46  30 2.46  42 2.47  45 2.47   9 2.50  62 2.53
                            50 2.54  28 2.60  12 2.61  29 2.63
  48  0.669  0.831  0.197-  54 2.50  41 2.50  59 2.51   3 2.51  32 2.53  49 2.54  15 2.56  63 2.57
                            62 2.59  36 2.60  60 2.60  37 2.61
  49  0.919  0.827  0.195-  42 2.43  47 2.45  41 2.47   1 2.50  39 2.53  43 2.53   9 2.54  48 2.54
                            54 2.57  28 2.57  63 2.58  36 2.59
  50  0.254  0.998  0.289-   2 2.50  29 2.50  52 2.51   4 2.51   8 2.52   1 2.53  47 2.54  12 2.54
                             9 2.54  28 2.55  44 2.55  46 2.61
  51  0.999  0.246  0.289-  16 2.49  54 2.49  14 2.50   3 2.51  17 2.52  57 2.52  53 2.52   6 2.53
                            58 2.53   1 2.54  56 2.55   4 2.56
  52  0.501  0.247  0.290-  21 2.46   2 2.49   8 2.49  11 2.50  50 2.51  53 2.51  24 2.52   4 2.52
                            12 2.53  18 2.54  27 2.55  23 2.64
  53  0.750  0.247  0.289-  16 2.46  21 2.47  11 2.48  15 2.50   2 2.50  58 2.51  14 2.51  52 2.51
                            51 2.52   3 2.55  27 2.60  26 2.70
  54  0.914  0.079  0.194-  51 2.49  48 2.50  15 2.52  63 2.52   1 2.52   3 2.53   9 2.55  13 2.56
                            49 2.57  57 2.59  58 2.59   5 2.60
  55  0.083  0.417  0.097-  33 2.49  58 2.53  30 2.55  57 2.56  13 2.56  25 2.59  35 2.59  19 2.60
                             5 2.62
  56  0.086  0.416  0.386-  16 2.44  17 2.48  20 2.51  14 2.51   6 2.51  31 2.52  51 2.55  26 2.55
                            34 2.57
  57  0.171  0.334  0.194-  17 2.49   4 2.50  51 2.52  59 2.52   9 2.55  55 2.56  24 2.56  54 2.59
                            19 2.59  58 2.59   5 2.59  35 2.61
  58  0.916  0.336  0.193-  53 2.51  42 2.52  13 2.53  55 2.53  16 2.53  51 2.53  35 2.53  15 2.54
                            25 2.54  27 2.56  57 2.59  54 2.59
  59  0.419  0.585  0.194-  48 2.51  57 2.52  37 2.52  18 2.52  32 2.53  17 2.54  62 2.55  41 2.55
                            33 2.57  19 2.60  35 2.60  24 2.61
  60  0.582  0.915  0.097-  13 2.51  10 2.52  15 2.53  62 2.54  63 2.55  33 2.56  37 2.56  45 2.59
                            48 2.60
  61  0.592  0.923  0.388-   3 2.47  38 2.48  14 2.48  46 2.49  64 2.53   2 2.53  11 2.55  32 2.55
                            34 2.56
  62  0.415  0.834  0.194-  35 2.51   2 2.52  12 2.52  47 2.53  15 2.54  60 2.54  59 2.55  32 2.56
                            45 2.56  29 2.56  48 2.59  33 2.61
  63  0.834  0.915  0.097-  54 2.52   5 2.54  43 2.54  39 2.54  60 2.55  37 2.57  48 2.57  49 2.58
                            13 2.59
  64  0.840  0.920  0.388-   3 2.49   6 2.50  36 2.51  38 2.51  61 2.53  14 2.53   1 2.55  44 2.55
                            40 2.57
 

IMPORTANT INFORMATION: All symmetrisations will be switched off!
NOSYMM: (Re-)initialisation of all symmetry stuff for point group C_1.

 
 

Automatic generation of k-mesh.
 generate k-points for:    3    3    1
Space group operators:
 irot       det(A)        alpha          n_x          n_y          n_z        tau_x        tau_y        tau_z
    1     1.000000     0.000000     1.000000     0.000000     0.000000     0.000000     0.000000     0.000000
 
 Subroutine IBZKPT returns following result:
 ===========================================
 
 Found      5 irreducible k-points:
 
 Following reciprocal coordinates:
            Coordinates               Weight
  0.000000  0.000000  0.000000      1.000000
  0.333333  0.000000  0.000000      2.000000
  0.000000  0.333333  0.000000      2.000000
  0.333333  0.333333  0.000000      2.000000
 -0.333333  0.333333  0.000000      2.000000
 
 Following cartesian coordinates:
            Coordinates               Weight
  0.000000  0.000000  0.000000      1.000000
  0.032965  0.019033  0.000000      2.000000
  0.000000  0.038065  0.000000      2.000000
  0.032965  0.057098  0.000000      2.000000
 -0.032965  0.019033  0.000000      2.000000
 
 TETIRR: Found     24 inequivalent tetrahedra from       54


--------------------------------------------------------------------------------------------------------




 Dimension of arrays:
   k-points           NKPTS =      5   k-points in BZ     NKDIM =      5   number of bands    NBANDS=    408
   number of dos      NEDOS =    301   number of ions     NIONS =     64
   non local maximal  LDIM  =      6   non local SUM 2l+1 LMDIM =     18
   total plane-waves  NPLWV = ******
   max r-space proj   IRMAX =   8251   max aug-charges    IRDMAX=  19526
   dimension x,y,z NGX =    80 NGY =   80 NGZ =  160
   dimension x,y,z NGXF=   160 NGYF=  160 NGZF=  320
   support grid    NGXF=   160 NGYF=  160 NGZF=  320
   ions per type =              49  15
   NGX,Y,Z   is equivalent  to a cutoff of  13.15, 13.15, 12.48 a.u.
   NGXF,Y,Z  is equivalent  to a cutoff of  26.31, 26.31, 24.96 a.u.

 SYSTEM =  SQS-NiFe                                
 POSCAR =  POSCAR                                  

 Startparameter for this run:
   NWRITE =      2    write-flag & timer
   PREC   = accura    normal or accurate (medium, high low for compatibility)
   ISTART =      0    job   : 0-new  1-cont  2-samecut
   ICHARG =      1    charge: 1-file 2-atom 10-const
   ISPIN  =      2    spin polarized calculation?
   LNONCOLLINEAR =      F non collinear calculations
   LSORBIT =      F    spin-orbit coupling
   INIWAV =      1    electr: 0-lowe 1-rand  2-diag
   LASPH  =      F    aspherical Exc in radial PAW
   METAGGA=      F    non-selfconsistent MetaGGA calc.

 Electronic Relaxation 1
   ENCUT  =  520.0 eV  38.22 Ry    6.18 a.u.  18.80 18.80 39.63*2*pi/ulx,y,z
   ENINI  =  520.0     initial cutoff
   ENAUG  =  544.6 eV  augmentation charge cutoff
   NELM   =    200;   NELMIN=  2; NELMDL= -5     # of ELM steps 
   EDIFF  = 0.1E-05   stopping-criterion for ELM
   LREAL  =      T    real-space projection
   NLSPLINE    = F    spline interpolate recip. space projectors
   LCOMPAT=      F    compatible to vasp.4.4
   GGA_COMPAT  = T    GGA compatible to vasp.4.4-vasp.4.6
   LMAXPAW     = -100 max onsite density
   LMAXMIX     =    2 max onsite mixed and CHGCAR
   VOSKOWN=      0    Vosko Wilk Nusair interpolation
   ROPT   =   -0.00025  -0.00025
 Ionic relaxation
   EDIFFG = -.2E-01   stopping-criterion for IOM
   NSW    =      0    number of steps for IOM
   NBLOCK =      1;   KBLOCK =      1    inner block; outer block 
   IBRION =     -1    ionic relax: 0-MD 1-quasi-New 2-CG
   NFREE  =      0    steps in history (QN), initial steepest desc. (CG)
   ISIF   =      2    stress and relaxation
   IWAVPR =     10    prediction:  0-non 1-charg 2-wave 3-comb
   ISYM   =      0    0-nonsym 1-usesym 2-fastsym
   LCORR  =      T    Harris-Foulkes like correction to forces

   POTIM  = 0.5000    time-step for ionic-motion
   TEIN   =    0.0    initial temperature
   TEBEG  =    0.0;   TEEND  =   0.0 temperature during run
   SMASS  =  -3.00    Nose mass-parameter (am)
   estimated Nose-frequenzy (Omega)   =  0.10E-29 period in steps =****** mass=  -0.234E-26a.u.
   SCALEE = 1.0000    scale energy and forces
   NPACO  =    256;   APACO  = 16.0  distance and # of slots for P.C.
   PSTRESS=    0.0 pullay stress

  Mass of Ions in am
   POMASS =  55.85 58.69
  Ionic Valenz
   ZVAL   =   8.00 10.00
  Atomic Wigner-Seitz radii
   RWIGS  =  -1.00 -1.00
  virtual crystal weights 
   VCA    =   1.00  1.00
   NELECT =     542.0000    total number of electrons
   NUPDOWN=      -1.0000    fix difference up-down

 DOS related values:
   EMIN   =  10.00;   EMAX   =-10.00  energy-range for DOS
   EFERMI =   0.00
   ISMEAR =    -5;   SIGMA  =   0.20  broadening in eV -4-tet -1-fermi 0-gaus

 Electronic relaxation 2 (details)
   IALGO  =     68    algorithm
   LDIAG  =      T    sub-space diagonalisation (order eigenvalues)
   LSUBROT=      F    optimize rotation matrix (better conditioning)
   TURBO    =      0    0=normal 1=particle mesh
   IRESTART =      0    0=no restart 2=restart with 2 vectors
   NREBOOT  =      0    no. of reboots
   NMIN     =      0    reboot dimension
   EREF     =   0.00    reference energy to select bands
   IMIX   =      4    mixing-type and parameters
     AMIX     =   0.40;   BMIX     =  1.00
     AMIX_MAG =   1.60;   BMIX_MAG =  1.00
     AMIN     =   0.10
     WC   =   100.;   INIMIX=   1;  MIXPRE=   1;  MAXMIX= -45

 Intra band minimization:
   WEIMIN = 0.0000     energy-eigenvalue tresh-hold
   EBREAK =  0.61E-09  absolut break condition
   DEPER  =   0.30     relativ break condition  

   TIME   =   0.40     timestep for ELM

  volume/ion in A,a.u.               =      29.49       198.99
  Fermi-wavevector in a.u.,A,eV,Ry     =   1.080118  2.041127 15.873299  1.166655
  Thomas-Fermi vector in A             =   2.216101
 
 Write flags
   LWAVE        =      F    write WAVECAR
   LDOWNSAMPLE  =      F    k-point downsampling of WAVECAR
   LCHARG       =      F    write CHGCAR
   LVTOT        =      F    write LOCPOT, total local potential
   LVHAR        =      F    write LOCPOT, Hartree potential only
   LELF         =      F    write electronic localiz. function (ELF)
   LORBIT       =     11    0 simple, 1 ext, 2 COOP (PROOUT), +10 PAW based schemes


 Dipole corrections
   LMONO  =      F    monopole corrections only (constant potential shift)
   LDIPOL =      T    correct potential (dipole corrections)
   IDIPOL =      3    1-x, 2-y, 3-z, 4-all directions 
   EPSILON=  1.0000000 bulk dielectric constant

 Exchange correlation treatment:
   GGA     =    --    GGA type
   LEXCH   =     8    internal setting for exchange type
   VOSKOWN=      0    Vosko Wilk Nusair interpolation
   LHFCALC =     F    Hartree Fock is set to
   LHFONE  =     F    Hartree Fock one center treatment
   AEXX    =    0.0000 exact exchange contribution

 Linear response parameters
   LEPSILON=     F    determine dielectric tensor
   LRPA    =     F    only Hartree local field effects (RPA)
   LNABLA  =     F    use nabla operator in PAW spheres
   LVEL    =     F    velocity operator in full k-point grid
   LINTERFAST=   F  fast interpolation
   KINTER  =     0    interpolate to denser k-point grid
   CSHIFT  =0.1000    complex shift for real part using Kramers Kronig
   OMEGAMAX=  -1.0    maximum frequency
   DEG_THRESHOLD= 0.2000000E-02 threshold for treating states as degnerate
   RTIME   =   -0.100 relaxation time in fs
  (WPLASMAI=    0.000 imaginary part of plasma frequency in eV, 0.658/RTIME)
   DFIELD  = 0.0000000 0.0000000 0.0000000 field for delta impulse in time
 
 Orbital magnetization related:
   ORBITALMAG=     F  switch on orbital magnetization
   LCHIMAG   =     F  perturbation theory with respect to B field
   DQ        =  0.001000  dq finite difference perturbation B field
   LLRAUG    =     F  two centre corrections for induced B field



--------------------------------------------------------------------------------------------------------


 Static calculation
 charge density and potential will be updated during run
 spin polarized calculation
 RMM-DIIS sequential band-by-band and
  variant of blocked Davidson during initial phase
 perform sub-space diagonalisation
    before iterative eigenvector-optimisation
 modified Broyden-mixing scheme, WC =      100.0
 initial mixing is a Kerker type mixing with AMIX =  0.4000 and BMIX =      1.0000
 Hartree-type preconditioning will be used
 using additional bands          137
 real space projection scheme for non local part
 use partial core corrections
 calculate Harris-corrections to forces 
   (improved forces if not selfconsistent)
 use gradient corrections 
 use of overlap-Matrix (Vanderbilt PP)
 Fermi weights with tetrahedron method with Bloechl corrections


--------------------------------------------------------------------------------------------------------


  energy-cutoff  :      520.00
  volume of cell :     1887.17
      direct lattice vectors                 reciprocal lattice vectors
    10.111630000  0.000000000  0.000000000     0.098896024  0.057097646  0.000000000
    -5.055815000  8.756928450  0.000000000     0.000000000  0.114195292  0.000000000
     0.000000000  0.000000000 21.312645990     0.000000000  0.000000000  0.046920500

  length of vectors
    10.111630000 10.111629997 21.312645990     0.114195292  0.114195292  0.046920500


 
 k-points in units of 2pi/SCALE and weight: read from INCAR                         
   0.00000000  0.00000000  0.00000000       0.111
   0.03296534  0.01903255  0.00000000       0.222
   0.00000000  0.03806510  0.00000000       0.222
   0.03296534  0.05709765  0.00000000       0.222
  -0.03296534  0.01903255  0.00000000       0.222
 
 k-points in reciprocal lattice and weights: read from INCAR                         
   0.00000000  0.00000000  0.00000000       0.111
   0.33333333  0.00000000  0.00000000       0.222
   0.00000000  0.33333333  0.00000000       0.222
   0.33333333  0.33333333  0.00000000       0.222
  -0.33333333  0.33333333  0.00000000       0.222
 
 position of ions in fractional coordinates (direct lattice) 
   0.00340430  0.99773305  0.28923196
   0.50239265  0.00123354  0.29074954
   0.75311832  0.99639765  0.29256869
   0.25076130  0.24467305  0.28829019
   0.08873200  0.16149400  0.09503655
   0.08615331  0.16702288  0.38550796
   0.32962600  0.16609800  0.09949802
   0.33545941  0.16517202  0.38530955
   0.16766300  0.08094400  0.19172241
   0.58333000  0.16550300  0.09887366
   0.59431980  0.17694901  0.38641453
   0.42207800  0.08742500  0.19156116
   0.82651500  0.16651000  0.09770193
   0.83729758  0.16884002  0.38549457
   0.66737600  0.08327700  0.19362076
   0.99349478  0.48959519  0.29407877
   0.24761552  0.49513932  0.29029108
   0.49822415  0.49617940  0.29056308
   0.33859900  0.41583700  0.09384100
   0.33584686  0.41961968  0.38890013
   0.74554759  0.48930710  0.29455543
   0.58633600  0.42229400  0.09867290
   0.58451431  0.42385460  0.39071589
   0.42032800  0.32671800  0.19226484
   0.82677100  0.41676200  0.09643693
   0.83604497  0.41822473  0.39468158
   0.66249300  0.33542400  0.19079821
   0.00331089  0.74497340  0.29448649
   0.24890519  0.74839727  0.29345453
   0.08604600  0.67086900  0.09664380
   0.09015984  0.66618376  0.39546284
   0.49724640  0.74737736  0.29216122
   0.33005900  0.66135600  0.09463213
   0.33860835  0.67058936  0.39203908
   0.16407000  0.58904200  0.19558362
   0.75262818  0.74277054  0.29578158
   0.58008200  0.66096300  0.09597033
   0.58713338  0.67597371  0.39281505
   0.83213700  0.66199500  0.09747502
   0.83906896  0.66607964  0.39555605
   0.67214400  0.58529400  0.19313760
   0.91907500  0.58733100  0.19487907
   0.08603600  0.91635500  0.09815022
   0.08851054  0.91234865  0.38736246
   0.32743000  0.91932200  0.09737653
   0.34246768  0.91784385  0.38939102
   0.16274300  0.83153600  0.19150654
   0.66878300  0.83083000  0.19650084
   0.91852300  0.82706000  0.19503131
   0.25403259  0.99839408  0.28880085
   0.99883528  0.24629654  0.28854110
   0.50131526  0.24666551  0.29046790
   0.75030742  0.24746567  0.28937217
   0.91424100  0.07929400  0.19382007
   0.08260800  0.41708000  0.09669464
   0.08621856  0.41563669  0.38581683
   0.17077300  0.33437100  0.19389387
   0.91567000  0.33646400  0.19341477
   0.41923600  0.58471500  0.19420852
   0.58190700  0.91526900  0.09685385
   0.59151139  0.92332142  0.38771966
   0.41467000  0.83428900  0.19444763
   0.83399900  0.91457100  0.09684514
   0.83962988  0.91969935  0.38820830
 
 position of ions in cartesian coordinates  (Angst):
  -5.00993069  8.73707690  6.16429835
   5.07377203  0.01080199  6.19664201
   2.57765166  8.72538292  6.23541285
   1.29858385  2.14258440  6.14422671
   0.08074137  1.41419140  2.02548035
   0.02671361  1.46260743  8.21619459
   2.49329539  1.45450830  2.12056608
   2.55696231  1.44639953  8.21196596
   1.28610833  0.70882082  4.08611185
   5.06166458  1.44929793  2.10725931
   5.11492046  1.54952980  8.23551607
   3.82589194  0.76557447  4.08267519
   7.51557011  1.45811616  2.08228665
   7.61281941  1.47852001  8.21590924
   6.32722608  0.72925073  4.12657071
   7.57054890  4.28735009  6.26759680
   0.00046373  4.33589960  6.18687111
   2.52926697  4.34500753  6.19266812
   1.32139286  3.64145486  2.00000001
   1.27443967  3.67457952  8.28849084
   5.06485520  4.28482729  6.27775559
   3.79377235  3.69799834  2.10298059
   3.76746200  3.71166442  8.32718940
   2.59837545  2.86104615  4.09767247
   6.25293088  3.64955501  2.05532615
   6.33931056  3.66236400  8.41170877
   5.00304240  2.93728397  4.06641471
  -3.73296920  6.52367873  6.27628623
  -1.26692095  6.55366139  6.25429256
  -2.52172424  5.87475183  2.05973510
  -2.45643896  5.83372354  8.42835946
   1.24936996  6.54473003  6.22672876
  -0.00625910  5.79144717  2.01686109
   0.03350660  5.87230303  8.35539017
  -1.31907225  5.15819865  4.16840445
   3.85498723  6.50438845  6.30388821
   2.52386790  5.78800570  2.04538167
   2.51927742  5.91945343  8.37192816
   5.06733720  5.79704285  2.07745059
   5.11677948  5.83281171  8.43034616
   3.83733325  5.12537768  4.11627330
   6.32390946  5.14321554  4.15338863
  -3.76295716  8.02445517  2.09184089
  -3.71768013  7.98937181  8.25571907
  -1.33707095  8.05043698  2.07535151
  -1.17754224  8.03749296  8.29895301
  -2.55849518  7.28170126  4.08151109
   2.56196347  7.27551886  4.18795284
   5.10630237  7.24250524  4.15663327
  -2.47901218  8.74286552  6.15511031
   8.85462300  2.15680118  6.14957432
   3.82201926  2.16003220  6.19063942
   6.33569036  2.16703916  6.16728660
   8.84357093  0.69437188  4.13081854
  -1.27337779  3.65233972  2.06081863
  -1.22957203  3.63970075  8.22277747
   0.03627547  2.92806292  4.13239141
   7.55781650  2.94639117  4.12218052
   1.28294845  5.12030742  4.13909744
   1.25659754  8.01494515  2.06421182
   1.31300200  8.08545961  8.26333196
  -0.02502123  7.30580908  4.14419350
   3.80918753  8.00883281  2.06402618
   3.84019687  8.05374143  8.27374596
 


--------------------------------------------------------------------------------------------------------


 k-point  1 :   0.0000 0.0000 0.0000  plane waves:   50797
 k-point  2 :   0.3333 0.0000 0.0000  plane waves:   50810
 k-point  3 :   0.0000 0.3333 0.0000  plane waves:   50810
 k-point  4 :   0.3333 0.3333 0.0000  plane waves:   50817
 k-point  5 :  -0.3333 0.3333 0.0000  plane waves:   50810

 maximum and minimum number of plane-waves per node :      2135     2096

 maximum number of plane-waves:     50817
 maximum index in each direction: 
   IXMAX=   19   IYMAX=   18   IZMAX=   39
   IXMIN=  -19   IYMIN=  -19   IZMIN=  -39


 real space projection operators:
  total allocation   :      68897.53 KBytes
  max/ min on nodes  :       3467.67       2535.75


 parallel 3D FFT for wavefunctions:
    minimum data exchange during FFTs selected (reduces bandwidth)
 parallel 3D FFT for charge:
    minimum data exchange during FFTs selected (reduces bandwidth)


 total amount of memory used by VASP MPI-rank0   113587. kBytes
=======================================================================

   base      :      30000. kBytes
   nonlr-proj:      13178. kBytes
   fftplans  :       6403. kBytes
   grid      :      16455. kBytes
   one-center:         93. kBytes
   wavefun   :      47458. kBytes
 
     INWAV:  cpu time    0.0000: real time    0.0001
 Broyden mixing: mesh for mixing (old mesh)
   NGX = 37   NGY = 37   NGZ = 79
  (NGX  =160   NGY  =160   NGZ  =320)
  gives a total of 108151 points

 initial charge density was supplied:
 number of electron     541.9999983 magnetization     138.7744911
 keeping initial charge density in first step


--------------------------------------------------------------------------------------------------------


 Maximum index for non-local projection operator          764
 Maximum index for augmentation-charges         1127 (set IRDMAX)


--------------------------------------------------------------------------------------------------------


 First call to EWALD:  gamma=   0.143
 Maximum number of real-space cells 4x 4x 2
 Maximum number of reciprocal cells 2x 2x 4

    FEWALD:  cpu time    0.0040: real time    0.0036


--------------------------------------- Iteration      1(   1)  ---------------------------------------


    POTLOK:  cpu time    0.2480: real time    0.2524
    SETDIJ:  cpu time    0.0170: real time    0.0191
     EDDAV:  cpu time   24.5573: real time   24.6964
 BZINTS: Fermi energy: 10.420290;542.000000 electrons
         Band energy:3408.634369;  BLOECHL correction: -0.002642
       DOS:  cpu time    0.0420: real time    0.0421
    --------------------------------------------
      LOOP:  cpu time   24.8642: real time   25.0101

 eigenvalue-minimisations  :  8160
 total energy-change (2. order) : 0.4323931E+04  (-0.2278319E+05)
 number of electron     541.9999983 magnetization     138.7744911
 augmentation part      541.9999983 magnetization     138.7744911

 DIPCOR: dipole corrections for dipol
 direction  3 min pos   232,
 dipolmoment           0.000000      0.000000     -0.020183 electrons x Angstroem
 Tr[quadrupol]     -9155.292402

 energy correction for charged system         0.000000 eV
 dipol+quadrupol energy correction           -0.000020 eV
 added-field ion interaction          0.463496 eV  (added to PSCEN)


 Free energy of the ion-electron system (eV)
  ---------------------------------------------------
  alpha Z        PSCENC =      1435.96423256
  Ewald energy   TEWEN  =    164945.13496738
  -Hartree energ DENC   =   -209952.23487660
  -exchange      EXHF   =         0.00000000
  -V(xc)+E(xc)   XCENC  =       674.40852455
  PAW double counting   =     51048.48362464   -52522.84472573
  entropy T*S    EENTRO =         0.00000000
  eigenvalues    EBANDS =      3408.63436888
  atomic energy  EATOM  =     45286.38514550
  Solvation  Ediel_sol  =         0.00000000
  ---------------------------------------------------
  free energy    TOTEN  =      4323.93126120 eV

  energy without entropy =     4323.93126120  energy(sigma->0) =     4323.93126120


--------------------------------------------------------------------------------------------------------




--------------------------------------- Iteration      1(   2)  ---------------------------------------


     EDDAV:  cpu time   24.3023: real time   24.3486
 BZINTS: Fermi energy:  0.787055;542.000000 electrons
         Band energy:-985.856508;  BLOECHL correction: -0.002303
       DOS:  cpu time    0.0340: real time    0.0346
    --------------------------------------------
      LOOP:  cpu time   24.3373: real time   24.3831

 eigenvalue-minimisations  :  8160
 total energy-change (2. order) :-0.4394491E+04  (-0.4083324E+04)
 number of electron     541.9999983 magnetization     138.7744911
 augmentation part      541.9999983 magnetization     138.7744911

 DIPCOR: dipole corrections for dipol
 direction  3 min pos   232,
 dipolmoment           0.000000      0.000000     -0.020183 electrons x Angstroem
 Tr[quadrupol]     -9155.292402

 energy correction for charged system         0.000000 eV
 dipol+quadrupol energy correction           -0.000020 eV
 added-field ion interaction          0.463496 eV  (added to PSCEN)


 Free energy of the ion-electron system (eV)
  ---------------------------------------------------
  alpha Z        PSCENC =      1435.96423256
  Ewald energy   TEWEN  =    164945.13496738
  -Hartree energ DENC   =   -209952.23487660
  -exchange      EXHF   =         0.00000000
  -V(xc)+E(xc)   XCENC  =       674.40852455
  PAW double counting   =     51048.48362464   -52522.84472573
  entropy T*S    EENTRO =         0.00000000
  eigenvalues    EBANDS =      -985.85650763
  atomic energy  EATOM  =     45286.38514550
  Solvation  Ediel_sol  =         0.00000000
  ---------------------------------------------------
  free energy    TOTEN  =       -70.55961531 eV

  energy without entropy =      -70.55961531  energy(sigma->0) =      -70.55961531


--------------------------------------------------------------------------------------------------------




--------------------------------------- Iteration      1(   3)  ---------------------------------------


     EDDAV:  cpu time   25.4611: real time   25.5000
 BZINTS: Fermi energy: -0.247598;542.000000 electrons
         Band energy:***********;  BLOECHL correction: -0.019173
       DOS:  cpu time    0.0390: real time    0.0398
    --------------------------------------------
      LOOP:  cpu time   25.4991: real time   25.5399

 eigenvalue-minimisations  :  8520
 total energy-change (2. order) :-0.3713189E+03  (-0.3154018E+03)
 number of electron     541.9999983 magnetization     138.7744911
 augmentation part      541.9999983 magnetization     138.7744911

 DIPCOR: dipole corrections for dipol
 direction  3 min pos   232,
 dipolmoment           0.000000      0.000000     -0.020183 electrons x Angstroem
 Tr[quadrupol]     -9155.292402

 energy correction for charged system         0.000000 eV
 dipol+quadrupol energy correction           -0.000020 eV
 added-field ion interaction          0.463496 eV  (added to PSCEN)


 Free energy of the ion-electron system (eV)
  ---------------------------------------------------
  alpha Z        PSCENC =      1435.96423256
  Ewald energy   TEWEN  =    164945.13496738
  -Hartree energ DENC   =   -209952.23487660
  -exchange      EXHF   =         0.00000000
  -V(xc)+E(xc)   XCENC  =       674.40852455
  PAW double counting   =     51048.48362464   -52522.84472573
  entropy T*S    EENTRO =         0.00000000
  eigenvalues    EBANDS =     -1357.17540977
  atomic energy  EATOM  =     45286.38514550
  Solvation  Ediel_sol  =         0.00000000
  ---------------------------------------------------
  free energy    TOTEN  =      -441.87851745 eV

  energy without entropy =     -441.87851745  energy(sigma->0) =     -441.87851745


--------------------------------------------------------------------------------------------------------




--------------------------------------- Iteration      1(   4)  ---------------------------------------


     EDDAV:  cpu time   25.8011: real time   25.8848
 BZINTS: Fermi energy: -0.289528;542.000000 electrons
         Band energy:***********;  BLOECHL correction: -0.019487
       DOS:  cpu time    0.0400: real time    0.0401
    --------------------------------------------
      LOOP:  cpu time   25.8411: real time   25.9249

 eigenvalue-minimisations  :  8661
 total energy-change (2. order) :-0.1504016E+02  (-0.1466043E+02)
 number of electron     541.9999983 magnetization     138.7744911
 augmentation part      541.9999983 magnetization     138.7744911

 DIPCOR: dipole corrections for dipol
 direction  3 min pos   232,
 dipolmoment           0.000000      0.000000     -0.020183 electrons x Angstroem
 Tr[quadrupol]     -9155.292402

 energy correction for charged system         0.000000 eV
 dipol+quadrupol energy correction           -0.000020 eV
 added-field ion interaction          0.463496 eV  (added to PSCEN)


 Free energy of the ion-electron system (eV)
  ---------------------------------------------------
  alpha Z        PSCENC =      1435.96423256
  Ewald energy   TEWEN  =    164945.13496738
  -Hartree energ DENC   =   -209952.23487660
  -exchange      EXHF   =         0.00000000
  -V(xc)+E(xc)   XCENC  =       674.40852455
  PAW double counting   =     51048.48362464   -52522.84472573
  entropy T*S    EENTRO =         0.00000000
  eigenvalues    EBANDS =     -1372.21557404
  atomic energy  EATOM  =     45286.38514550
  Solvation  Ediel_sol  =         0.00000000
  ---------------------------------------------------
  free energy    TOTEN  =      -456.91868172 eV

  energy without entropy =     -456.91868172  energy(sigma->0) =     -456.91868172


--------------------------------------------------------------------------------------------------------




--------------------------------------- Iteration      1(   5)  ---------------------------------------


     EDDAV:  cpu time   27.9877: real time   28.0885
 BZINTS: Fermi energy: -0.290341;542.000000 electrons
         Band energy:***********;  BLOECHL correction: -0.019458
       DOS:  cpu time    0.0430: real time    0.0431
    CHARGE:  cpu time    0.6989: real time    0.6986
    MIXING:  cpu time    0.0040: real time    0.0046
    --------------------------------------------
      LOOP:  cpu time   28.7336: real time   28.8349

 eigenvalue-minimisations  :  9165
 total energy-change (2. order) :-0.2593612E+00  (-0.2590471E+00)
 number of electron     541.9999983 magnetization     138.7794503
 augmentation part      296.9661901 magnetization     112.0816103

 DIPCOR: dipole corrections for dipol
 direction  3 min pos   232,
 dipolmoment           0.000000      0.000000     -0.020183 electrons x Angstroem
 Tr[quadrupol]     -9155.292402

 energy correction for charged system         0.000000 eV
 dipol+quadrupol energy correction           -0.000020 eV
 added-field ion interaction          0.463496 eV  (added to PSCEN)


 Broyden mixing:
  rms(total) = 0.32225E-01    rms(broyden)= 0.32142E-01
  rms(prec ) = 0.32994E-01
  weight for this iteration     100.00

 Free energy of the ion-electron system (eV)
  ---------------------------------------------------
  alpha Z        PSCENC =      1435.96423256
  Ewald energy   TEWEN  =    164945.13496738
  -Hartree energ DENC   =   -209952.23487660
  -exchange      EXHF   =         0.00000000
  -V(xc)+E(xc)   XCENC  =       674.40852455
  PAW double counting   =     51048.48362464   -52522.84472573
  entropy T*S    EENTRO =         0.00000000
  eigenvalues    EBANDS =     -1372.47493526
  atomic energy  EATOM  =     45286.38514550
  Solvation  Ediel_sol  =         0.00000000
  ---------------------------------------------------
  free energy    TOTEN  =      -457.17804294 eV

  energy without entropy =     -457.17804294  energy(sigma->0) =     -457.17804294


--------------------------------------------------------------------------------------------------------




--------------------------------------- Iteration      1(   6)  ---------------------------------------


    POTLOK:  cpu time    0.2430: real time    0.2435
    SETDIJ:  cpu time    0.0180: real time    0.0174
    EDDIAG:  cpu time    3.7194: real time    3.7224
  RMM-DIIS:  cpu time   15.2227: real time   15.2575
    ORTHCH:  cpu time    0.6519: real time    0.6519
 BZINTS: Fermi energy: -0.286239;542.000000 electrons
         Band energy:***********;  BLOECHL correction: -0.019632
       DOS:  cpu time    0.0430: real time    0.0432
    CHARGE:  cpu time    0.6789: real time    0.6799
    MIXING:  cpu time    0.0050: real time    0.0046
    --------------------------------------------
      LOOP:  cpu time   20.5819: real time   20.6204

 eigenvalue-minimisations  :  8391
 total energy-change (2. order) :-0.1028608E+00  (-0.1337211E-01)
 number of electron     541.9999983 magnetization     138.7790129
 augmentation part      296.8726151 magnetization     112.0872233

 DIPCOR: dipole corrections for dipol
 direction  3 min pos   232,
 dipolmoment           0.000000      0.000000     -0.005690 electrons x Angstroem
 Tr[quadrupol]     -9155.310944

 energy correction for charged system         0.000000 eV
 dipol+quadrupol energy correction           -0.000002 eV
 added-field ion interaction          0.130674 eV  (added to PSCEN)


 Broyden mixing:
  rms(total) = 0.10193E+00    rms(broyden)= 0.10191E+00
  rms(prec ) = 0.14015E+00
  weight for this iteration     100.00

 eigenvalues of (default mixing * dielectric matrix)
  average eigenvalue GAMMA=   0.2214
  0.2214

 Free energy of the ion-electron system (eV)
  ---------------------------------------------------
  alpha Z        PSCENC =      1435.63142820
  Ewald energy   TEWEN  =    164945.13496738
  -Hartree energ DENC   =   -209954.02658824
  -exchange      EXHF   =         0.00000000
  -V(xc)+E(xc)   XCENC  =       674.54320851
  PAW double counting   =     51079.80246849   -52554.30471590
  entropy T*S    EENTRO =         0.00000000
  eigenvalues    EBANDS =     -1370.44681766
  atomic energy  EATOM  =     45286.38514550
  Solvation  Ediel_sol  =         0.00000000
  ---------------------------------------------------
  free energy    TOTEN  =      -457.28090372 eV

  energy without entropy =     -457.28090372  energy(sigma->0) =     -457.28090372


--------------------------------------------------------------------------------------------------------




--------------------------------------- Iteration      1(   7)  ---------------------------------------


    POTLOK:  cpu time    0.2430: real time    0.2434
    SETDIJ:  cpu time    0.0170: real time    0.0170
    EDDIAG:  cpu time    3.7344: real time    3.7370
  RMM-DIIS:  cpu time   21.6177: real time   21.6633
    ORTHCH:  cpu time    0.6629: real time    0.6627
 BZINTS: Fermi energy: -0.287205;542.000000 electrons
         Band energy:***********;  BLOECHL correction: -0.019674
       DOS:  cpu time    0.0410: real time    0.0413
    CHARGE:  cpu time    0.6919: real time    0.6923
    MIXING:  cpu time    0.0050: real time    0.0048
    --------------------------------------------
      LOOP:  cpu time   27.0129: real time   27.0619

 eigenvalue-minimisations  : 12009
 total energy-change (2. order) :-0.5001443E-02  (-0.2859954E-02)
 number of electron     541.9999983 magnetization     138.7794911
 augmentation part      296.8610348 magnetization     112.0614973

 DIPCOR: dipole corrections for dipol
 direction  3 min pos   235,
 dipolmoment           0.000000      0.000000     -0.036512 electrons x Angstroem
 Tr[quadrupol]     -9155.294553

 energy correction for charged system         0.000000 eV
 dipol+quadrupol energy correction           -0.000064 eV
 added-field ion interaction          0.459331 eV  (added to PSCEN)


 Broyden mixing:
  rms(total) = 0.11037E+00    rms(broyden)= 0.11036E+00
  rms(prec ) = 0.16452E+00
  weight for this iteration     100.00

 eigenvalues of (default mixing * dielectric matrix)
  average eigenvalue GAMMA=   0.2146
  0.3687  0.0604

 Free energy of the ion-electron system (eV)
  ---------------------------------------------------
  alpha Z        PSCENC =      1435.96002337
  Ewald energy   TEWEN  =    164945.13496738
  -Hartree energ DENC   =   -209953.09155398
  -exchange      EXHF   =         0.00000000
  -V(xc)+E(xc)   XCENC  =       674.52951352
  PAW double counting   =     51080.86593074   -52555.31422009
  entropy T*S    EENTRO =         0.00000000
  eigenvalues    EBANDS =     -1371.75571161
  atomic energy  EATOM  =     45286.38514550
  Solvation  Ediel_sol  =         0.00000000
  ---------------------------------------------------
  free energy    TOTEN  =      -457.28590516 eV

  energy without entropy =     -457.28590516  energy(sigma->0) =     -457.28590516


--------------------------------------------------------------------------------------------------------




--------------------------------------- Iteration      1(   8)  ---------------------------------------


    POTLOK:  cpu time    0.2650: real time    0.2661
    SETDIJ:  cpu time    0.0360: real time    0.0355
    EDDIAG:  cpu time    3.6115: real time    3.6187
  RMM-DIIS:  cpu time   15.5526: real time   15.6062
    ORTHCH:  cpu time    0.6219: real time    0.6223
 BZINTS: Fermi energy: -0.290599;542.000000 electrons
         Band energy:***********;  BLOECHL correction: -0.019834
       DOS:  cpu time    0.0410: real time    0.0405
    CHARGE:  cpu time    0.7039: real time    0.7043
    MIXING:  cpu time    0.0060: real time    0.0054
    --------------------------------------------
      LOOP:  cpu time   20.8378: real time   20.8989

 eigenvalue-minimisations  :  8509
 total energy-change (2. order) : 0.4607641E-02  (-0.3921677E-03)
 number of electron     541.9999983 magnetization     138.7801978
 augmentation part      296.8901919 magnetization     112.0643589

 DIPCOR: dipole corrections for dipol
 direction  3 min pos   239,
 dipolmoment           0.000000      0.000000     -0.014489 electrons x Angstroem
 Tr[quadrupol]     -9155.245040

 energy correction for charged system         0.000000 eV
 dipol+quadrupol energy correction           -0.000010 eV
 added-field ion interaction         -0.018336 eV  (added to PSCEN)


 Broyden mixing:
  rms(total) = 0.64263E-01    rms(broyden)= 0.64254E-01
  rms(prec ) = 0.80265E-01
  weight for this iteration     100.00

 eigenvalues of (default mixing * dielectric matrix)
  average eigenvalue GAMMA=   0.1999
  0.3887  0.1585  0.0526

 Free energy of the ion-electron system (eV)
  ---------------------------------------------------
  alpha Z        PSCENC =      1435.48241015
  Ewald energy   TEWEN  =    164945.13496738
  -Hartree energ DENC   =   -209951.94323822
  -exchange      EXHF   =         0.00000000
  -V(xc)+E(xc)   XCENC  =       674.50494093
  PAW double counting   =     51080.85642106   -52555.23862541
  entropy T*S    EENTRO =         0.00000000
  eigenvalues    EBANDS =     -1372.46331892
  atomic energy  EATOM  =     45286.38514550
  Solvation  Ediel_sol  =         0.00000000
  ---------------------------------------------------
  free energy    TOTEN  =      -457.28129752 eV

  energy without entropy =     -457.28129752  energy(sigma->0) =     -457.28129752


--------------------------------------------------------------------------------------------------------




--------------------------------------- Iteration      1(   9)  ---------------------------------------


    POTLOK:  cpu time    0.2420: real time    0.2429
    SETDIJ:  cpu time    0.0170: real time    0.0171
    EDDIAG:  cpu time    3.6944: real time    3.6962
  RMM-DIIS:  cpu time   15.6936: real time   15.7316
    ORTHCH:  cpu time    0.6689: real time    0.6686
 BZINTS: Fermi energy: -0.288821;542.000000 electrons
         Band energy:***********;  BLOECHL correction: -0.019491
       DOS:  cpu time    0.0390: real time    0.0395
    CHARGE:  cpu time    0.6819: real time    0.6828
    MIXING:  cpu time    0.0060: real time    0.0047
    --------------------------------------------
      LOOP:  cpu time   21.0428: real time   21.0834

 eigenvalue-minimisations  :  8587
 total energy-change (2. order) : 0.1700737E-02  (-0.1810406E-03)
 number of electron     541.9999983 magnetization     138.7801444
 augmentation part      296.8826243 magnetization     112.0785632

 DIPCOR: dipole corrections for dipol
 direction  3 min pos   240,
 dipolmoment           0.000000      0.000000     -0.019330 electrons x Angstroem
 Tr[quadrupol]     -9155.273684

 energy correction for charged system         0.000000 eV
 dipol+quadrupol energy correction           -0.000018 eV
 added-field ion interaction         -0.091370 eV  (added to PSCEN)


 Broyden mixing:
  rms(total) = 0.18314E-01    rms(broyden)= 0.18308E-01
  rms(prec ) = 0.20321E-01
  weight for this iteration     100.00

 eigenvalues of (default mixing * dielectric matrix)
  average eigenvalue GAMMA=   0.2573
  0.4256  0.4256  0.1252  0.0527

 Free energy of the ion-electron system (eV)
  ---------------------------------------------------
  alpha Z        PSCENC =      1435.40936839
  Ewald energy   TEWEN  =    164945.13496738
  -Hartree energ DENC   =   -209952.63723939
  -exchange      EXHF   =         0.00000000
  -V(xc)+E(xc)   XCENC  =       674.47859198
  PAW double counting   =     51079.40041987   -52553.71459427
  entropy T*S    EENTRO =         0.00000000
  eigenvalues    EBANDS =     -1371.73625624
  atomic energy  EATOM  =     45286.38514550
  Solvation  Ediel_sol  =         0.00000000
  ---------------------------------------------------
  free energy    TOTEN  =      -457.27959678 eV

  energy without entropy =     -457.27959678  energy(sigma->0) =     -457.27959678


--------------------------------------------------------------------------------------------------------




--------------------------------------- Iteration      1(  10)  ---------------------------------------


    POTLOK:  cpu time    0.2420: real time    0.2441
    SETDIJ:  cpu time    0.0180: real time    0.0171
    EDDIAG:  cpu time    3.6854: real time    3.6899
  RMM-DIIS:  cpu time   15.7876: real time   15.8464
    ORTHCH:  cpu time    0.6209: real time    0.6234
 BZINTS: Fermi energy: -0.289538;542.000000 electrons
         Band energy:***********;  BLOECHL correction: -0.019540
       DOS:  cpu time    0.0430: real time    0.0431
    CHARGE:  cpu time    0.6969: real time    0.6997
    MIXING:  cpu time    0.0150: real time    0.0140
    --------------------------------------------
      LOOP:  cpu time   21.1088: real time   21.1777

 eigenvalue-minimisations  :  8644
 total energy-change (2. order) :-0.2794717E-03  (-0.5611532E-04)
 number of electron     541.9999983 magnetization     138.7802424
 augmentation part      296.9033107 magnetization     112.0614049

 DIPCOR: dipole corrections for dipol
 direction  3 min pos   239,
 dipolmoment           0.000000      0.000000     -0.019085 electrons x Angstroem
 Tr[quadrupol]     -9155.268111

 energy correction for charged system         0.000000 eV
 dipol+quadrupol energy correction           -0.000017 eV
 added-field ion interaction         -0.024152 eV  (added to PSCEN)


 Broyden mixing:
  rms(total) = 0.21624E-01    rms(broyden)= 0.21623E-01
  rms(prec ) = 0.23547E-01
  weight for this iteration     100.00

 eigenvalues of (default mixing * dielectric matrix)
  average eigenvalue GAMMA=   0.2842
  0.5455  0.5455  0.0526  0.1258  0.1516

 Free energy of the ion-electron system (eV)
  ---------------------------------------------------
  alpha Z        PSCENC =      1435.47658655
  Ewald energy   TEWEN  =    164945.13496738
  -Hartree energ DENC   =   -209952.13009500
  -exchange      EXHF   =         0.00000000
  -V(xc)+E(xc)   XCENC  =       674.45244438
  PAW double counting   =     51075.13094789   -52549.37871300
  entropy T*S    EENTRO =         0.00000000
  eigenvalues    EBANDS =     -1372.35115997
  atomic energy  EATOM  =     45286.38514550
  Solvation  Ediel_sol  =         0.00000000
  ---------------------------------------------------
  free energy    TOTEN  =      -457.27987625 eV

  energy without entropy =     -457.27987625  energy(sigma->0) =     -457.27987625


--------------------------------------------------------------------------------------------------------




--------------------------------------- Iteration      1(  11)  ---------------------------------------


    POTLOK:  cpu time    0.2600: real time    0.2627
    SETDIJ:  cpu time    0.0180: real time    0.0172
    EDDIAG:  cpu time    3.6354: real time    3.6470
  RMM-DIIS:  cpu time   16.1175: real time   16.3100
    ORTHCH:  cpu time    0.6589: real time    0.6601
 BZINTS: Fermi energy: -0.289845;542.000000 electrons
         Band energy:***********;  BLOECHL correction: -0.019495
       DOS:  cpu time    0.0440: real time    0.0432
    CHARGE:  cpu time    0.7289: real time    0.7305
    MIXING:  cpu time    0.0060: real time    0.0050
    --------------------------------------------
      LOOP:  cpu time   21.4687: real time   21.6757

 eigenvalue-minimisations  :  8599
 total energy-change (2. order) : 0.1542699E-03  (-0.2300257E-04)
 number of electron     541.9999983 magnetization     138.7802028
 augmentation part      296.8922687 magnetization     112.0701229

 DIPCOR: dipole corrections for dipol
 direction  3 min pos   236,
 dipolmoment           0.000000      0.000000     -0.019260 electrons x Angstroem
 Tr[quadrupol]     -9155.279454

 energy correction for charged system         0.000000 eV
 dipol+quadrupol energy correction           -0.000018 eV
 added-field ion interaction          0.175630 eV  (added to PSCEN)


 Broyden mixing:
  rms(total) = 0.93691E-02    rms(broyden)= 0.93685E-02
  rms(prec ) = 0.98302E-02
  weight for this iteration     100.00

 eigenvalues of (default mixing * dielectric matrix)
  average eigenvalue GAMMA=   0.2930
  0.5870  0.5870  0.2650  0.0526  0.1202  0.1464

 Free energy of the ion-electron system (eV)
  ---------------------------------------------------
  alpha Z        PSCENC =      1435.67636867
  Ewald energy   TEWEN  =    164945.13496738
  -Hartree energ DENC   =   -209952.36341135
  -exchange      EXHF   =         0.00000000
  -V(xc)+E(xc)   XCENC  =       674.45081990
  PAW double counting   =     51071.27844795   -52545.55772093
  entropy T*S    EENTRO =         0.00000000
  eigenvalues    EBANDS =     -1372.28433911
  atomic energy  EATOM  =     45286.38514550
  Solvation  Ediel_sol  =         0.00000000
  ---------------------------------------------------
  free energy    TOTEN  =      -457.27972198 eV

  energy without entropy =     -457.27972198  energy(sigma->0) =     -457.27972198


--------------------------------------------------------------------------------------------------------




--------------------------------------- Iteration      1(  12)  ---------------------------------------


    POTLOK:  cpu time    0.2430: real time    0.2441
    SETDIJ:  cpu time    0.0180: real time    0.0171
    EDDIAG:  cpu time    3.7114: real time    3.7279
  RMM-DIIS:  cpu time   17.0654: real time   17.1351
    ORTHCH:  cpu time    0.6209: real time    0.6218
 BZINTS: Fermi energy: -0.290010;542.000000 electrons
         Band energy:***********;  BLOECHL correction: -0.019475
       DOS:  cpu time    0.0420: real time    0.0423
    CHARGE:  cpu time    0.7149: real time    0.7157
    MIXING:  cpu time    0.0060: real time    0.0052
    --------------------------------------------
      LOOP:  cpu time   22.4216: real time   22.5092

 eigenvalue-minimisations  :  9435
 total energy-change (2. order) :-0.1053116E-04  (-0.6166877E-05)
 number of electron     541.9999983 magnetization     138.7800471
 augmentation part      296.8931079 magnetization     112.0689157

 DIPCOR: dipole corrections for dipol
 direction  3 min pos   235,
 dipolmoment           0.000000      0.000000     -0.019180 electrons x Angstroem
 Tr[quadrupol]     -9155.281208

 energy correction for charged system         0.000000 eV
 dipol+quadrupol energy correction           -0.000018 eV
 added-field ion interaction          0.241290 eV  (added to PSCEN)


 Broyden mixing:
  rms(total) = 0.82257E-02    rms(broyden)= 0.82256E-02
  rms(prec ) = 0.84688E-02
  weight for this iteration     100.00

 eigenvalues of (default mixing * dielectric matrix)
  average eigenvalue GAMMA=   0.3318
  0.7322  0.7322  0.3922  0.0526  0.1641  0.1271  0.1220

 Free energy of the ion-electron system (eV)
  ---------------------------------------------------
  alpha Z        PSCENC =      1435.74202877
  Ewald energy   TEWEN  =    164945.13496738
  -Hartree energ DENC   =   -209952.34191794
  -exchange      EXHF   =         0.00000000
  -V(xc)+E(xc)   XCENC  =       674.44778950
  PAW double counting   =     51069.60507857   -52543.88347251
  entropy T*S    EENTRO =         0.00000000
  eigenvalues    EBANDS =     -1372.36935179
  atomic energy  EATOM  =     45286.38514550
  Solvation  Ediel_sol  =         0.00000000
  ---------------------------------------------------
  free energy    TOTEN  =      -457.27973252 eV

  energy without entropy =     -457.27973252  energy(sigma->0) =     -457.27973252


--------------------------------------------------------------------------------------------------------




--------------------------------------- Iteration      1(  13)  ---------------------------------------


    POTLOK:  cpu time    0.2430: real time    0.2438
    SETDIJ:  cpu time    0.0180: real time    0.0174
    EDDIAG:  cpu time    3.6804: real time    3.6869
  RMM-DIIS:  cpu time   16.7695: real time   16.7967
    ORTHCH:  cpu time    0.6459: real time    0.6469
 BZINTS: Fermi energy: -0.290155;542.000000 electrons
         Band energy:***********;  BLOECHL correction: -0.019480
       DOS:  cpu time    0.0400: real time    0.0400
    CHARGE:  cpu time    0.7229: real time    0.7234
    MIXING:  cpu time    0.0120: real time    0.0111
    --------------------------------------------
      LOOP:  cpu time   22.1316: real time   22.1662

 eigenvalue-minimisations  :  9251
 total energy-change (2. order) :-0.4948673E-04  (-0.1900367E-05)
 number of electron     541.9999983 magnetization     138.7799733
 augmentation part      296.8939359 magnetization     112.0679558

 DIPCOR: dipole corrections for dipol
 direction  3 min pos   234,
 dipolmoment           0.000000      0.000000     -0.019263 electrons x Angstroem
 Tr[quadrupol]     -9155.284703

 energy correction for charged system         0.000000 eV
 dipol+quadrupol energy correction           -0.000018 eV
 added-field ion interaction          0.309017 eV  (added to PSCEN)


 Broyden mixing:
  rms(total) = 0.65074E-02    rms(broyden)= 0.65074E-02
  rms(prec ) = 0.66282E-02
  weight for this iteration     100.00

 eigenvalues of (default mixing * dielectric matrix)
  average eigenvalue GAMMA=   0.3211
  0.7688  0.7688  0.3358  0.2445  0.0526  0.1403  0.1403  0.1175

 Free energy of the ion-electron system (eV)
  ---------------------------------------------------
  alpha Z        PSCENC =      1435.80975554
  Ewald energy   TEWEN  =    164945.13496738
  -Hartree energ DENC   =   -209952.33984480
  -exchange      EXHF   =         0.00000000
  -V(xc)+E(xc)   XCENC  =       674.44053622
  PAW double counting   =     51065.93680868   -52540.21141558
  entropy T*S    EENTRO =         0.00000000
  eigenvalues    EBANDS =     -1372.43573495
  atomic energy  EATOM  =     45286.38514550
  Solvation  Ediel_sol  =         0.00000000
  ---------------------------------------------------
  free energy    TOTEN  =      -457.27978200 eV

  energy without entropy =     -457.27978200  energy(sigma->0) =     -457.27978200


--------------------------------------------------------------------------------------------------------




--------------------------------------- Iteration      1(  14)  ---------------------------------------


    POTLOK:  cpu time    0.2610: real time    0.2615
    SETDIJ:  cpu time    0.0200: real time    0.0201
    EDDIAG:  cpu time    3.7374: real time    3.7481
  RMM-DIIS:  cpu time   14.1269: real time   14.1605
    ORTHCH:  cpu time    0.6519: real time    0.6531
 BZINTS: Fermi energy: -0.290165;542.000000 electrons
         Band energy:***********;  BLOECHL correction: -0.019468
       DOS:  cpu time    0.0420: real time    0.0424
    CHARGE:  cpu time    0.7519: real time    0.7522
    MIXING:  cpu time    0.0060: real time    0.0053
    --------------------------------------------
      LOOP:  cpu time   19.5970: real time   19.6432

 eigenvalue-minimisations  :  7718
 total energy-change (2. order) :-0.1269684E-04  (-0.5389952E-06)
 number of electron     541.9999983 magnetization     138.7796417
 augmentation part      296.8945915 magnetization     112.0672466

 DIPCOR: dipole corrections for dipol
 direction  3 min pos   234,
 dipolmoment           0.000000      0.000000     -0.019286 electrons x Angstroem
 Tr[quadrupol]     -9155.284870

 energy correction for charged system         0.000000 eV
 dipol+quadrupol energy correction           -0.000018 eV
 added-field ion interaction          0.309387 eV  (added to PSCEN)


 Broyden mixing:
  rms(total) = 0.58460E-02    rms(broyden)= 0.58459E-02
  rms(prec ) = 0.59214E-02
  weight for this iteration     100.00

 eigenvalues of (default mixing * dielectric matrix)
  average eigenvalue GAMMA=   0.3816
  0.9533  0.9533  0.4602  0.4602  0.0526  0.1553  0.1553  0.1198  0.1240

 Free energy of the ion-electron system (eV)
  ---------------------------------------------------
  alpha Z        PSCENC =      1435.81012578
  Ewald energy   TEWEN  =    164945.13496738
  -Hartree energ DENC   =   -209952.32975055
  -exchange      EXHF   =         0.00000000
  -V(xc)+E(xc)   XCENC  =       674.43790279
  PAW double counting   =     51064.55516202   -52538.82635985
  entropy T*S    EENTRO =         0.00000000
  eigenvalues    EBANDS =     -1372.44698778
  atomic energy  EATOM  =     45286.38514550
  Solvation  Ediel_sol  =         0.00000000
  ---------------------------------------------------
  free energy    TOTEN  =      -457.27979470 eV

  energy without entropy =     -457.27979470  energy(sigma->0) =     -457.27979470


--------------------------------------------------------------------------------------------------------




--------------------------------------- Iteration      1(  15)  ---------------------------------------


    POTLOK:  cpu time    0.2440: real time    0.2449
    SETDIJ:  cpu time    0.0200: real time    0.0200
    EDDIAG:  cpu time    3.6874: real time    3.7001
  RMM-DIIS:  cpu time   13.5419: real time   13.5802
    ORTHCH:  cpu time    0.6489: real time    0.6489
 BZINTS: Fermi energy: -0.290258;542.000000 electrons
         Band energy:***********;  BLOECHL correction: -0.019462
       DOS:  cpu time    0.0390: real time    0.0397
    CHARGE:  cpu time    0.7199: real time    0.7203
    MIXING:  cpu time    0.0050: real time    0.0056
    --------------------------------------------
      LOOP:  cpu time   18.9071: real time   18.9597

 eigenvalue-minimisations  :  7435
 total energy-change (2. order) :-0.6741016E-04  (-0.6209994E-06)
 number of electron     541.9999983 magnetization     138.7794788
 augmentation part      296.8959385 magnetization     112.0665835

 DIPCOR: dipole corrections for dipol
 direction  3 min pos   234,
 dipolmoment           0.000000      0.000000     -0.019275 electrons x Angstroem
 Tr[quadrupol]     -9155.285186

 energy correction for charged system         0.000000 eV
 dipol+quadrupol energy correction           -0.000018 eV
 added-field ion interaction          0.309207 eV  (added to PSCEN)


 Broyden mixing:
  rms(total) = 0.45158E-02    rms(broyden)= 0.45158E-02
  rms(prec ) = 0.46218E-02
  weight for this iteration     100.00

 eigenvalues of (default mixing * dielectric matrix)
  average eigenvalue GAMMA=   0.3751
  1.0159  1.0159  0.4677  0.4677  0.0526  0.1757  0.1757  0.1174  0.1312  0.1312

 Free energy of the ion-electron system (eV)
  ---------------------------------------------------
  alpha Z        PSCENC =      1435.80994579
  Ewald energy   TEWEN  =    164945.13496738
  -Hartree energ DENC   =   -209952.30169403
  -exchange      EXHF   =         0.00000000
  -V(xc)+E(xc)   XCENC  =       674.43058560
  PAW double counting   =     51060.03936236   -52534.30437604
  entropy T*S    EENTRO =         0.00000000
  eigenvalues    EBANDS =     -1372.47379869
  atomic energy  EATOM  =     45286.38514550
  Solvation  Ediel_sol  =         0.00000000
  ---------------------------------------------------
  free energy    TOTEN  =      -457.27986211 eV

  energy without entropy =     -457.27986211  energy(sigma->0) =     -457.27986211


--------------------------------------------------------------------------------------------------------




--------------------------------------- Iteration      1(  16)  ---------------------------------------


    POTLOK:  cpu time    0.2440: real time    0.2442
    SETDIJ:  cpu time    0.0190: real time    0.0183
    EDDIAG:  cpu time    4.1744: real time    4.1897
  RMM-DIIS:  cpu time   11.2933: real time   11.3633
    ORTHCH:  cpu time    0.6389: real time    0.6395
 BZINTS: Fermi energy: -0.290283;542.000000 electrons
         Band energy:***********;  BLOECHL correction: -0.019455
       DOS:  cpu time    0.0410: real time    0.0410
    CHARGE:  cpu time    0.7339: real time    0.7348
    MIXING:  cpu time    0.0090: real time    0.0088
    --------------------------------------------
      LOOP:  cpu time   17.1524: real time   17.2395

 eigenvalue-minimisations  :  6055
 total energy-change (2. order) :-0.2051446E-04  (-0.2616406E-06)
 number of electron     541.9999983 magnetization     138.7789981
 augmentation part      296.8967711 magnetization     112.0656413

 DIPCOR: dipole corrections for dipol
 direction  3 min pos   234,
 dipolmoment           0.000000      0.000000     -0.019275 electrons x Angstroem
 Tr[quadrupol]     -9155.285371

 energy correction for charged system         0.000000 eV
 dipol+quadrupol energy correction           -0.000018 eV
 added-field ion interaction          0.309211 eV  (added to PSCEN)


 Broyden mixing:
  rms(total) = 0.38109E-02    rms(broyden)= 0.38108E-02
  rms(prec ) = 0.38888E-02
  weight for this iteration     100.00

 eigenvalues of (default mixing * dielectric matrix)
  average eigenvalue GAMMA=   0.4326
  1.2250  1.2250  0.5721  0.5721  0.4150  0.0526  0.1736  0.1410  0.1410  0.1207
  0.1207

 Free energy of the ion-electron system (eV)
  ---------------------------------------------------
  alpha Z        PSCENC =      1435.80994958
  Ewald energy   TEWEN  =    164945.13496738
  -Hartree energ DENC   =   -209952.29138416
  -exchange      EXHF   =         0.00000000
  -V(xc)+E(xc)   XCENC  =       674.42753943
  PAW double counting   =     51058.23399370   -52532.49559751
  entropy T*S    EENTRO =         0.00000000
  eigenvalues    EBANDS =     -1372.48449656
  atomic energy  EATOM  =     45286.38514550
  Solvation  Ediel_sol  =         0.00000000
  ---------------------------------------------------
  free energy    TOTEN  =      -457.27988262 eV

  energy without entropy =     -457.27988262  energy(sigma->0) =     -457.27988262


--------------------------------------------------------------------------------------------------------




--------------------------------------- Iteration      1(  17)  ---------------------------------------


    POTLOK:  cpu time    0.2460: real time    0.2462
    SETDIJ:  cpu time    0.0180: real time    0.0181
    EDDIAG:  cpu time    3.6744: real time    3.6849
  RMM-DIIS:  cpu time   12.6081: real time   12.6452
    ORTHCH:  cpu time    0.6399: real time    0.6391
 BZINTS: Fermi energy: -0.290329;542.000000 electrons
         Band energy:***********;  BLOECHL correction: -0.019450
       DOS:  cpu time    0.0400: real time    0.0406
    CHARGE:  cpu time    0.7229: real time    0.7235
    MIXING:  cpu time    0.0060: real time    0.0059
    --------------------------------------------
      LOOP:  cpu time   17.9553: real time   18.0035

 eigenvalue-minimisations  :  6797
 total energy-change (2. order) :-0.5222599E-04  (-0.4630190E-06)
 number of electron     541.9999983 magnetization     138.7787443
 augmentation part      296.8976408 magnetization     112.0650255

 DIPCOR: dipole corrections for dipol
 direction  3 min pos   234,
 dipolmoment           0.000000      0.000000     -0.019286 electrons x Angstroem
 Tr[quadrupol]     -9155.285843

 energy correction for charged system         0.000000 eV
 dipol+quadrupol energy correction           -0.000018 eV
 added-field ion interaction          0.309387 eV  (added to PSCEN)


 Broyden mixing:
  rms(total) = 0.27029E-02    rms(broyden)= 0.27028E-02
  rms(prec ) = 0.27983E-02
  weight for this iteration     100.00

 eigenvalues of (default mixing * dielectric matrix)
  average eigenvalue GAMMA=   0.4406
  1.3506  1.3506  0.6157  0.6157  0.4262  0.0526  0.1928  0.1548  0.1548  0.1175
  0.1278  0.1278

 Free energy of the ion-electron system (eV)
  ---------------------------------------------------
  alpha Z        PSCENC =      1435.81012509
  Ewald energy   TEWEN  =    164945.13496738
  -Hartree energ DENC   =   -209952.28032763
  -exchange      EXHF   =         0.00000000
  -V(xc)+E(xc)   XCENC  =       674.42158508
  PAW double counting   =     51054.62653901   -52528.88287222
  entropy T*S    EENTRO =         0.00000000
  eigenvalues    EBANDS =     -1372.49509709
  atomic energy  EATOM  =     45286.38514550
  Solvation  Ediel_sol  =         0.00000000
  ---------------------------------------------------
  free energy    TOTEN  =      -457.27993485 eV

  energy without entropy =     -457.27993485  energy(sigma->0) =     -457.27993485


--------------------------------------------------------------------------------------------------------




--------------------------------------- Iteration      1(  18)  ---------------------------------------


    POTLOK:  cpu time    0.2440: real time    0.2455
    SETDIJ:  cpu time    0.0190: real time    0.0185
    EDDIAG:  cpu time    3.6534: real time    3.6578
[...]
   -.346E+02 -.634E+02 -.702E+03   0.349E+02 0.638E+02 0.702E+03   -.330E+00 -.483E+00 0.147E+00   0.672E-04 -.215E-03 0.119E-02
   -.185E+02 -.365E+02 -.701E+03   0.185E+02 0.367E+02 0.701E+03   0.760E-01 -.119E+00 0.516E-01   -.227E-03 0.392E-04 0.101E-02
   -.234E+02 0.563E+01 0.207E+04   0.237E+02 -.550E+01 -.206E+04   -.883E+00 0.165E-01 -.212E+01   0.159E-03 -.120E-02 0.781E-03
   -.394E+02 0.102E+01 -.201E+04   0.400E+02 -.107E+01 0.201E+04   -.594E+00 0.417E-01 0.248E+01   -.120E-03 -.275E-03 -.519E-04
   0.173E+02 -.886E+02 -.727E+03   -.172E+02 0.891E+02 0.727E+03   -.792E-01 -.523E+00 0.211E+00   -.284E-03 0.339E-03 0.718E-03
   -.169E+01 0.117E+02 0.202E+04   0.140E+01 -.116E+02 -.201E+04   0.889E-01 -.287E+00 -.199E+01   -.701E-04 -.306E-03 0.846E-03
   0.192E+02 -.115E+02 -.203E+04   -.192E+02 0.116E+02 0.203E+04   0.396E-02 -.714E-01 0.196E+01   -.519E-03 0.607E-03 0.635E-04
   -.471E+01 -.345E+02 0.704E+03   0.408E+01 0.350E+02 -.704E+03   -.594E+00 0.483E+00 -.941E-01   -.320E-03 -.317E-03 0.944E-03
   0.191E+02 -.253E+02 0.205E+04   -.192E+02 0.253E+02 -.204E+04   0.829E+00 0.102E+00 -.229E+01   -.228E-03 -.521E-03 0.628E-03
   0.321E+02 -.315E+02 -.208E+04   -.327E+02 0.316E+02 0.208E+04   0.552E+00 -.265E-01 0.279E+01   -.208E-03 0.443E-03 -.222E-03
   0.119E+02 -.465E+02 0.730E+03   -.114E+02 0.467E+02 -.730E+03   0.609E+00 -.271E+00 0.658E+00   -.142E-03 -.115E-03 0.108E-02
   0.213E+02 0.343E+02 -.725E+03   -.215E+02 -.343E+02 0.725E+03   0.300E+00 -.317E-01 0.526E-01   -.348E-03 0.739E-05 0.802E-03
   0.158E+02 0.286E+02 -.730E+03   -.156E+02 -.289E+02 0.730E+03   -.292E+00 0.288E+00 0.179E-01   0.617E-03 0.174E-04 0.591E-03
   0.224E+02 -.329E+01 0.202E+04   -.225E+02 0.348E+01 -.202E+04   0.105E+00 -.688E+00 -.246E+01   -.951E-03 0.451E-03 0.395E-03
   0.164E+02 -.243E+02 -.205E+04   -.167E+02 0.249E+02 0.205E+04   0.278E+00 -.614E+00 0.308E+01   0.978E-04 -.434E-06 -.169E-03
   -.205E+02 0.329E+02 -.711E+03   0.206E+02 -.330E+02 0.711E+03   -.922E-01 0.889E-01 0.510E-01   -.211E-03 -.386E-03 0.806E-03
   0.115E+02 -.132E+02 0.205E+04   -.114E+02 0.131E+02 -.205E+04   0.105E+00 0.348E+00 -.237E+01   0.294E-03 -.139E-03 0.669E-03
   -.300E+01 0.138E+02 -.203E+04   0.311E+01 -.136E+02 0.202E+04   -.836E-01 -.123E+00 0.292E+01   0.311E-03 -.659E-03 -.293E-03
   0.204E+02 -.374E+02 0.637E+03   -.203E+02 0.375E+02 -.636E+03   0.461E+00 -.704E+00 -.640E+00   0.300E-03 -.408E-03 0.199E-02
   -.144E+02 0.485E+02 -.721E+03   0.142E+02 -.486E+02 0.720E+03   0.137E+00 0.777E-01 0.725E+00   -.106E-04 -.398E-03 0.825E-03
   -.206E+02 0.131E+02 0.203E+04   0.205E+02 -.135E+02 -.203E+04   -.141E-01 0.918E+00 -.231E+01   0.587E-03 -.354E-03 0.689E-03
   -.120E+02 0.647E+02 -.202E+04   0.118E+02 -.654E+02 0.202E+04   0.135E+00 0.681E+00 0.273E+01   0.281E-03 -.727E-03 -.908E-04
   -.144E+02 0.233E+01 0.201E+04   0.146E+02 -.255E+01 -.201E+04   -.141E+00 0.543E+00 -.229E+01   -.165E-04 0.492E-03 0.530E-03
   -.201E+00 0.135E+02 -.204E+04   0.590E+00 -.140E+02 0.204E+04   -.358E+00 0.466E+00 0.298E+01   -.643E-03 -.105E-03 -.572E-04
   -.141E+02 -.965E+01 0.647E+03   0.140E+02 0.974E+01 -.646E+03   -.444E+00 -.567E-03 -.921E-01   0.157E-03 -.305E-03 0.132E-02
   0.273E+02 -.232E+02 0.640E+03   -.274E+02 0.228E+02 -.640E+03   0.153E+00 -.308E+00 -.542E-01   -.647E-03 -.280E-03 0.135E-02
   -.561E+01 0.243E+02 0.202E+04   0.573E+01 -.240E+02 -.202E+04   -.693E+00 -.402E+00 -.216E+01   -.565E-03 0.821E-03 0.662E-03
   -.119E+02 -.227E+01 -.201E+04   0.125E+02 0.223E+01 0.200E+04   -.501E+00 0.539E-01 0.200E+01   -.395E-03 0.442E-03 0.239E-03
   0.708E+01 0.512E-01 0.204E+04   -.736E+01 -.308E+00 -.204E+04   0.943E+00 -.998E-01 -.228E+01   -.580E-03 0.103E-02 0.515E-03
   0.337E+02 -.233E+01 -.204E+04   -.341E+02 0.208E+01 0.203E+04   0.419E+00 0.251E+00 0.254E+01   -.345E-03 -.172E-03 -.229E-03
   0.172E+02 0.191E+02 0.692E+03   -.169E+02 -.189E+02 -.691E+03   0.381E+00 0.315E+00 0.379E+00   -.389E-03 0.866E-03 0.106E-02
   -.253E+02 0.438E+02 0.605E+03   0.253E+02 -.439E+02 -.605E+03   -.338E+00 0.231E+00 -.959E+00   0.189E-03 0.112E-03 0.143E-02
   -.610E+01 0.411E+02 0.629E+03   0.604E+01 -.409E+02 -.629E+03   -.698E+00 0.559E+00 -.708E+00   0.106E-03 0.516E-03 0.737E-03
   0.265E+02 0.541E+02 -.827E+03   -.265E+02 -.544E+02 0.827E+03   0.750E-01 0.327E+00 0.267E+00   -.202E-03 0.223E-03 0.569E-03
   -.508E+02 0.200E+01 -.851E+03   0.511E+02 -.227E+01 0.851E+03   -.298E+00 0.259E+00 0.166E+00   0.892E-03 0.177E-03 0.883E-03
   0.355E+02 -.572E+02 -.861E+03   -.357E+02 0.573E+02 0.861E+03   0.285E+00 -.178E+00 0.191E+00   -.473E-03 0.198E-03 0.321E-03
   0.479E+02 -.246E+02 -.839E+03   -.480E+02 0.244E+02 0.839E+03   0.309E-01 0.171E+00 0.243E+00   0.469E-03 0.196E-03 -.733E-04
   -.262E+02 0.654E+02 0.870E+03   0.263E+02 -.653E+02 -.869E+03   0.142E+00 0.368E+00 -.506E+00   0.577E-03 0.642E-03 0.100E-02
   0.640E+01 -.171E+02 0.256E+04   -.637E+01 0.171E+02 -.256E+04   -.179E-01 -.151E+00 -.266E+00   0.120E-03 -.182E-02 0.878E-03
   -.244E+02 -.387E+02 -.251E+04   0.244E+02 0.388E+02 0.251E+04   0.558E-01 -.615E-01 -.269E+00   0.112E-02 -.404E-03 -.498E-03
   -.608E+02 -.219E+02 0.875E+03   0.611E+02 0.219E+02 -.875E+03   -.475E+00 -.103E+00 -.429E+00   0.359E-03 -.942E-03 0.148E-02
   0.523E+02 -.641E+02 0.896E+03   -.525E+02 0.642E+02 -.896E+03   0.358E+00 -.286E+00 -.182E+00   0.161E-03 -.815E-03 0.140E-02
   -.410E+02 -.302E+01 0.826E+03   0.410E+02 0.295E+01 -.826E+03   -.210E+00 -.149E+00 -.379E+00   0.254E-03 -.648E-03 0.215E-02
   0.252E+02 0.166E+02 0.254E+04   -.252E+02 -.167E+02 -.254E+04   0.125E+00 -.157E+00 -.946E+00   0.741E-04 0.122E-02 0.959E-03
   0.418E+02 0.244E+02 -.251E+04   -.422E+02 -.244E+02 0.251E+04   0.417E+00 -.473E-01 0.608E+00   0.600E-04 -.819E-03 -.485E-03
   0.220E+02 0.135E+02 0.820E+03   -.221E+02 -.135E+02 -.819E+03   0.436E+00 -.123E+00 -.693E+00   -.300E-04 0.597E-03 0.233E-02
   -.313E+02 0.370E+02 0.253E+04   0.315E+02 -.371E+02 -.253E+04   -.396E+00 0.102E+00 -.757E+00   0.131E-02 0.888E-03 0.943E-03
   -.586E+02 0.313E+02 -.251E+04   0.589E+02 -.312E+02 0.251E+04   -.228E+00 -.134E+00 0.100E+01   0.694E-03 -.239E-03 0.745E-04
 -----------------------------------------------------------------------------------------------
   0.112E+00 -.362E+00 -.102E+01   0.199E-12 -.565E-12 -.182E-11   -.113E+00 0.362E+00 0.978E+00   0.889E-03 -.304E-03 0.404E-01
 
 
 POSITION                                       TOTAL-FORCE (eV/Angst)
 -----------------------------------------------------------------------------------
     -5.00993      8.73708      6.16430        -0.003576      0.005648     -0.074116
      5.07377      0.01080      6.19664         0.004227      0.013833     -0.067911
      2.57765      8.72538      6.23541         0.009026     -0.001240     -0.062701
      1.29858      2.14258      6.14423         0.027300      0.004372     -0.043433
      0.08074      1.41419      2.02548        -0.764032      0.206005      0.226965
      0.02671      1.46261      8.21619         0.033971     -0.002893     -0.092930
      2.49330      1.45451      2.12057         0.219293      0.159212     -0.997718
      2.55696      1.44640      8.21197         0.018705     -0.012393     -0.090820
      1.28611      0.70882      4.08611        -0.486083      0.082299      0.649317
      5.06166      1.44930      2.10726        -0.040097     -0.046590     -0.785821
      5.11492      1.54953      8.23552         0.054294      0.013025     -0.052854
      3.82589      0.76557      4.08268         0.067711     -0.835727      1.029653
      7.51557      1.45812      2.08229         0.564989     -0.046130      0.075862
      7.61282      1.47852      8.21591        -0.024520      0.006089     -0.093853
      6.32723      0.72925      4.12657         0.077687     -0.184076      0.263320
      7.57055      4.28735      6.26760        -0.009325     -0.008812     -0.095223
      0.00046      4.33590      6.18687         0.026267      0.003571     -0.083234
      2.52927      4.34501      6.19267        -0.013927     -0.016019     -0.070884
      1.32139      3.64145      2.00000        -0.558383      0.146480      0.380557
      1.27444      3.67458      8.28849         0.014072     -0.007749     -0.074693
      5.06486      4.28483      6.27776         0.004302     -0.003483     -0.061303
      3.79377      3.69800      2.10298        -0.195358     -0.161156     -0.935833
      3.76746      3.71166      8.32719         0.008524      0.032317     -0.088802
      2.59838      2.86105      4.09767        -1.223090      0.954638      0.448034
      6.25293      3.64956      2.05533         0.700587      0.107990     -0.143380
      6.33931      3.66236      8.41171         0.006999     -0.023733     -0.074192
      5.00304      2.93728      4.06641         1.157979     -0.137350      1.312778
     -3.73297      6.52368      6.27629         0.047393      0.000577     -0.077427
     -1.26692      6.55366      6.25429        -0.006132      0.018477     -0.081983
     -2.52172      5.87475      2.05974        -0.021523     -0.482474     -0.515805
     -2.45644      5.83372      8.42836         0.028586      0.033383     -0.084867
      1.24937      6.54473      6.22673        -0.010847      0.010539     -0.099059
     -0.00626      5.79145      2.01686         0.167513      0.324267      0.473555
      0.03351      5.87230      8.35539         0.032744      0.039917     -0.086609
     -1.31907      5.15820      4.16840         0.561161     -0.543763     -0.154102
      3.85499      6.50439      6.30389         0.023352     -0.011335     -0.075603
      2.52387      5.78801      2.04538        -0.085680      0.523158     -0.053289
      2.51928      5.91945      8.37193        -0.046275     -0.034795     -0.101717
      5.06734      5.79704      2.07745         0.043049      0.310486     -0.491225
      5.11678      5.83281      8.43035         0.036717      0.007070     -0.132269
      3.83733      5.12538      4.11627        -0.584394      0.092514      0.796713
      6.32391      5.14322      4.15339         0.083358     -0.775799      0.370094
     -3.76296      8.02446      2.09184        -0.558297     -0.130299     -0.689813
     -3.71768      7.98937      8.25572         0.046827      0.013621     -0.076691
     -1.33707      8.05044      2.07535         0.637560     -0.352377     -0.167125
     -1.17754      8.03749      8.29895         0.003182     -0.001974     -0.069761
     -2.55850      7.28170      4.08151         0.639756      0.471142      1.153145
      2.56196      7.27552      4.18795        -0.401237      0.096224     -0.411770
      5.10630      7.24251      4.15663        -0.751749      0.745351     -0.062388
     -2.47901      8.74287      6.15511         0.013742      0.025217     -0.064505
      8.85462      2.15680      6.14957         0.001508     -0.015443     -0.039050
      3.82202      2.16003      6.19064         0.022021      0.000398     -0.048230
      6.33569      2.16704      6.16729         0.006172     -0.016544     -0.038120
      8.84357      0.69437      4.13082         0.220368      0.398247     -0.208934
     -1.27338      3.65234      2.06082         0.008392     -0.150055      0.540277
     -1.22957      3.63970      8.22278         0.018875      0.020445     -0.095417
      0.03628      2.92806      4.13239        -0.143297     -0.133229     -0.317749
      7.55782      2.94639      4.12218         0.196720     -0.180597     -0.058933
      1.28295      5.12031      4.13910        -0.180911     -0.226271     -0.143046
      1.25660      8.01495      2.06421         0.051445     -0.207044      0.452989
      1.31300      8.08546      8.26333         0.000118      0.007094     -0.063823
     -0.02502      7.30581      4.14419         0.353087     -0.130314     -0.183105
      3.80919      8.00883      2.06403        -0.139670     -0.000293      0.564862
      3.84020      8.05374      8.27375         0.008825      0.006351     -0.056005
 -----------------------------------------------------------------------------------
    total drift:                                0.000632     -0.000748      0.000275


--------------------------------------------------------------------------------------------------------



  FREE ENERGIE OF THE ION-ELECTRON SYSTEM (eV)
  ---------------------------------------------------
  free  energy   TOTEN  =      -471.31323533 eV

  energy  without entropy=     -471.31323533  energy(sigma->0) =     -471.31323533
 


--------------------------------------------------------------------------------------------------------


    POTLOK:  cpu time    0.2720: real time    0.2753


--------------------------------------------------------------------------------------------------------


     LOOP+:  cpu time  525.0012: real time  526.8542
    4ORBIT:  cpu time    0.0000: real time    0.0000
 


 total charge     
 
# of ion       s       p       d       tot
------------------------------------------
    1        0.474   0.502   6.212   7.188
    2        0.473   0.501   6.199   7.173
    3        0.475   0.500   6.212   7.187
    4        0.478   0.507   6.218   7.203
    5        0.469   0.375   6.160   7.004
    6        0.471   0.393   6.169   7.034
    7        0.503   0.450   6.238   7.191
    8        0.472   0.397   6.172   7.041
    9        0.491   0.531   6.245   7.268
   10        0.492   0.421   6.214   7.127
   11        0.474   0.401   6.179   7.054
   12        0.494   0.539   6.251   7.283
   13        0.467   0.376   6.144   6.988
   14        0.472   0.398   6.169   7.039
   15        0.475   0.501   6.216   7.193
   16        0.475   0.501   6.198   7.173
   17        0.474   0.497   6.201   7.172
   18        0.473   0.501   6.198   7.172
   19        0.472   0.391   6.166   7.029
   20        0.473   0.394   6.177   7.044
   21        0.473   0.505   6.198   7.177
   22        0.503   0.452   6.229   7.184
   23        0.474   0.396   6.182   7.051
   24        0.491   0.529   6.248   7.267
   25        0.479   0.405   6.188   7.072
   26        0.473   0.383   6.180   7.037
   27        0.493   0.535   6.244   7.272
   28        0.477   0.509   6.219   7.205
   29        0.475   0.505   6.215   7.195
   30        0.485   0.410   6.195   7.089
   31        0.473   0.387   6.170   7.030
   32        0.470   0.495   6.205   7.170
   33        0.463   0.368   6.141   6.972
   34        0.474   0.386   6.185   7.045
   35        0.470   0.490   6.201   7.160
   36        0.472   0.500   6.204   7.176
   37        0.476   0.395   6.169   7.040
   38        0.470   0.386   6.157   7.013
   39        0.487   0.417   6.203   7.107
   40        0.471   0.383   6.166   7.020
   41        0.490   0.533   6.234   7.257
   42        0.489   0.533   6.236   7.258
   43        0.496   0.439   6.220   7.155
   44        0.472   0.398   6.184   7.054
   45        0.481   0.408   6.204   7.093
   46        0.471   0.392   6.183   7.046
   47        0.494   0.541   6.253   7.288
   48        0.465   0.481   6.188   7.134
   49        0.488   0.524   6.238   7.250
   50        0.514   0.525   8.314   9.353
   51        0.507   0.509   8.316   9.331
   52        0.518   0.531   8.322   9.370
   53        0.516   0.525   8.316   9.356
   54        0.498   0.492   8.307   9.296
   55        0.494   0.367   8.305   9.166
   56        0.520   0.416   8.317   9.252
   57        0.489   0.472   8.303   9.264
   58        0.496   0.486   8.312   9.294
   59        0.500   0.500   8.306   9.306
   60        0.496   0.372   8.308   9.177
   61        0.515   0.414   8.312   9.241
   62        0.501   0.497   8.312   9.310
   63        0.493   0.371   8.307   9.171
   64        0.512   0.401   8.315   9.229
--------------------------------------------------
tot         31.011  29.039 428.450 488.500
 


 magnetization (x)
 
# of ion       s       p       d       tot
------------------------------------------
    1       -0.010  -0.035   2.600   2.555
    2       -0.008  -0.032   2.654   2.614
    3       -0.010  -0.027   2.608   2.571
    4       -0.013  -0.040   2.580   2.528
    5        0.001  -0.005   2.767   2.763
    6       -0.002  -0.014   2.734   2.718
    7       -0.015  -0.030   2.558   2.512
    8       -0.007  -0.024   2.707   2.676
    9       -0.016  -0.043   2.516   2.456
   10       -0.012  -0.017   2.633   2.605
   11       -0.004  -0.018   2.704   2.682
   12       -0.017  -0.045   2.513   2.450
   13        0.004  -0.003   2.812   2.813
   14        0.003  -0.009   2.739   2.733
   15       -0.010  -0.031   2.588   2.548
   16       -0.011  -0.035   2.656   2.610
   17       -0.011  -0.033   2.632   2.588
   18       -0.015  -0.046   2.641   2.581
   19       -0.001  -0.016   2.746   2.730
   20       -0.009  -0.023   2.691   2.658
   21       -0.016  -0.049   2.648   2.583
   22       -0.015  -0.035   2.587   2.537
   23       -0.010  -0.026   2.681   2.645
   24       -0.015  -0.040   2.534   2.479
   25       -0.005  -0.018   2.695   2.672
   26       -0.005  -0.015   2.708   2.688
   27       -0.015  -0.042   2.562   2.505
   28       -0.017  -0.050   2.587   2.520
   29       -0.017  -0.049   2.586   2.520
   30       -0.010  -0.021   2.670   2.639
   31       -0.005  -0.018   2.732   2.710
   32       -0.013  -0.039   2.626   2.573
   33        0.001  -0.006   2.801   2.796
   34       -0.004  -0.011   2.682   2.667
   35       -0.009  -0.030   2.635   2.596
   36       -0.017  -0.047   2.615   2.551
   37       -0.004  -0.016   2.736   2.715
   38       -0.004  -0.019   2.762   2.738
   39       -0.010  -0.020   2.660   2.629
   40       -0.006  -0.017   2.747   2.725
   41       -0.019  -0.053   2.545   2.474
   42       -0.018  -0.052   2.550   2.480
   43       -0.011  -0.028   2.599   2.559
   44       -0.006  -0.021   2.680   2.653
   45       -0.007  -0.017   2.641   2.617
   46       -0.005  -0.019   2.683   2.660
   47       -0.018  -0.049   2.506   2.439
   48       -0.006  -0.026   2.668   2.635
   49       -0.017  -0.042   2.531   2.472
   50       -0.034  -0.070   0.745   0.640
   51       -0.026  -0.051   0.746   0.669
   52       -0.032  -0.066   0.743   0.645
   53       -0.032  -0.064   0.762   0.667
   54       -0.028  -0.055   0.748   0.665
   55       -0.033  -0.033   0.707   0.641
   56       -0.036  -0.040   0.706   0.631
   57       -0.025  -0.046   0.755   0.684
   58       -0.026  -0.048   0.733   0.659
   59       -0.032  -0.068   0.755   0.654
   60       -0.031  -0.033   0.721   0.658
   61       -0.034  -0.046   0.726   0.646
   62       -0.031  -0.060   0.727   0.635
   63       -0.031  -0.034   0.731   0.665
   64       -0.035  -0.038   0.718   0.645
--------------------------------------------------
tot         -0.931  -2.155 140.756 137.670
 
 BZINTS: Fermi energy: -0.289590;542.000000 electrons
         Band energy:***********;  BLOECHL correction: -0.019431

 total amount of memory used by VASP MPI-rank0   113587. kBytes
=======================================================================

   base      :      30000. kBytes
   nonlr-proj:      13178. kBytes
   fftplans  :       6403. kBytes
   grid      :      16455. kBytes
   one-center:         93. kBytes
   wavefun   :      47458. kBytes
 
  
  
 General timing and accounting informations for this job:
 ========================================================
  
                  Total CPU time used (sec):      560.474
                            User time (sec):      554.390
                          System time (sec):        6.084
                         Elapsed time (sec):      571.712
  
                   Maximum memory used (kb):      197612.
                   Average memory used (kb):           0.
  
                          Minor page faults:       104858
                          Major page faults:            0
                 Voluntary context switches:        10639
