       N       E                     dE             d eps       ncg     rms          rms(c)
DAV:   1    -0.444431475210E+03   -0.44443E+03   -0.82903E-02  8376   0.248E+00    0.815E-01
RMM:   2    -0.444541125209E+03   -0.10965E+00   -0.11698E-01  8076   0.111E+00    0.323E+00
RMM:   3    -0.444514833356E+03    0.26292E-01   -0.34226E-02  8202   0.518E-01    0.190E+00
RMM:   4    -0.444508914513E+03    0.59188E-02   -0.14414E-02  8239   0.285E-01    0.185E+00
RMM:   5    -0.444514721479E+03   -0.58070E-02   -0.11812E-02  8036   0.275E-01    0.245E+00
RMM:   6    -0.444497775727E+03    0.16946E-01   -0.36224E-03  8098   0.166E-01    0.621E-01
RMM:   7    -0.444498252151E+03   -0.47642E-03   -0.25506E-03  8143   0.129E-01    0.842E-01
RMM:   8    -0.444496689938E+03    0.15622E-02   -0.11892E-03  8187   0.878E-02    0.697E-01
RMM:   9    -0.444496225632E+03    0.46431E-03   -0.82559E-04  8228   0.754E-02    0.654E-01
RMM:  10    -0.444496040018E+03    0.18561E-03   -0.49707E-04  8143   0.537E-02    0.718E-01
RMM:  11    -0.444495883546E+03    0.15647E-03   -0.22394E-04  8132   0.394E-02    0.735E-01
RMM:  12    -0.444495802389E+03    0.81157E-04   -0.18090E-05  8605   0.883E-03    0.715E-01
RMM:  13    -0.444495585405E+03    0.21698E-03   -0.55252E-05  8072   0.182E-02    0.663E-01
RMM:  14    -0.444495176104E+03    0.40930E-03   -0.35028E-04  8066   0.432E-02    0.585E-01
RMM:  15    -0.444494372934E+03    0.80317E-03   -0.71363E-04  8130   0.612E-02    0.431E-01
RMM:  16    -0.444493823018E+03    0.54992E-03   -0.73433E-04  8082   0.596E-02    0.289E-01
RMM:  17    -0.444493491955E+03    0.33106E-03   -0.38185E-04  8038   0.475E-02    0.137E-01
RMM:  18    -0.444493816501E+03   -0.32455E-03   -0.21002E-04  8019   0.350E-02    0.156E-01
RMM:  19    -0.444494243147E+03   -0.42665E-03   -0.15186E-04  8019   0.312E-02    0.753E-02
RMM:  20    -0.444494560429E+03   -0.31728E-03   -0.91028E-05  8139   0.234E-02    0.973E-02
RMM:  21    -0.444494959446E+03   -0.39902E-03   -0.49675E-05  8104   0.181E-02    0.468E-02
RMM:  22    -0.444495240910E+03   -0.28146E-03   -0.22867E-05  8161   0.116E-02    0.452E-02
RMM:  23    -0.444495839599E+03   -0.59869E-03   -0.17461E-05  7954   0.836E-03    0.235E-02
RMM:  24    -0.444496049249E+03   -0.20965E-03   -0.69360E-06  7673   0.605E-03    0.199E-02
RMM:  25    -0.444496617870E+03   -0.56862E-03   -0.10679E-05  7033   0.501E-03    0.178E-02
RMM:  26    -0.444496838466E+03   -0.22060E-03   -0.40143E-06  6265   0.409E-03    0.139E-02
RMM:  27    -0.444497374258E+03   -0.53579E-03   -0.10854E-05  7039   0.414E-03    0.140E-02
RMM:  28    -0.444497576721E+03   -0.20246E-03   -0.36202E-06  6103   0.319E-03    0.878E-03
RMM:  29    -0.444497999844E+03   -0.42312E-03   -0.11646E-05  7131   0.376E-03    0.113E-02
RMM:  30    -0.444498195539E+03   -0.19569E-03   -0.55157E-06  6370   0.298E-03    0.516E-03
RMM:  31    -0.444498376045E+03   -0.18051E-03   -0.67024E-06  6528   0.273E-03    0.707E-03
RMM:  32    -0.444498445503E+03   -0.69458E-04   -0.28902E-06  6006   0.238E-03    0.381E-03
RMM:  33    -0.444498497849E+03   -0.52346E-04   -0.36618E-06  6023   0.200E-03    0.442E-03
RMM:  34    -0.444498504665E+03   -0.68159E-05   -0.11320E-06  5534   0.173E-03    0.197E-03
RMM:  35    -0.444498504762E+03   -0.96290E-07   -0.76275E-07  4976   0.114E-03
   1 F= -.46003200E+03 E0= -.46003200E+03  d E =0.000000E+00  mag=   101.5087
