 vasp.5.4.4.18Apr17-6-g9f103f2a35 (build Dec 15 2018 21:27:11) complex          
  
 executed on             LinuxIFC date 2022.02.12  03:11:34
 running on   48 total cores
 distrk:  each k-point on   48 cores,    1 groups
 distr:  one band on NCORES_PER_BAND=  24 cores,    2 groups


--------------------------------------------------------------------------------------------------------


 INCAR:
 POTCAR:    PAW_PBE Ni 02Aug2007                  
 POTCAR:    PAW_PBE Fe 06Sep2000                  
 POTCAR:    PAW_PBE O 08Apr2002                   

 ----------------------------------------------------------------------------- 
|                                                                             |
|           W    W    AA    RRRRR   N    N  II  N    N   GGGG   !!!           |
|           W    W   A  A   R    R  NN   N  II  NN   N  G    G  !!!           |
|           W    W  A    A  R    R  N N  N  II  N N  N  G       !!!           |
|           W WW W  AAAAAA  RRRRR   N  N N  II  N  N N  G  GGG   !            |
|           WW  WW  A    A  R   R   N   NN  II  N   NN  G    G                |
|           W    W  A    A  R    R  N    N  II  N    N   GGGG   !!!           |
|                                                                             |
|      For optimal performance we recommend to set                            |
|        NCORE= 4 - approx SQRT( number of cores)                             |
|      NCORE specifies how many cores store one orbital (NPAR=cpu/NCORE).     |
|      This setting can  greatly improve the performance of VASP for DFT.     |
|      The default,   NCORE=1            might be grossly inefficient         |
|      on modern multi-core architectures or massively parallel machines.     |
|      Do your own testing !!!!                                               |
|      Unfortunately you need to use the default for GW and RPA calculations. |
|      (for HF NCORE is supported but not extensively tested yet)             |
|                                                                             |
 ----------------------------------------------------------------------------- 

 POTCAR:    PAW_PBE Ni 02Aug2007                  
   VRHFIN =Ni:                                                                  
   LEXCH  = PE                                                                  
   EATOM  =  1077.6739 eV,   79.2068 Ry                                         
                                                                                
   TITEL  = PAW_PBE Ni 02Aug2007                                                
   LULTRA =        F    use ultrasoft PP ?                                      
   IUNSCR =        1    unscreen: 0-lin 1-nonlin 2-no                           
   RPACOR =    2.000    partial core radius                                     
   POMASS =   58.690; ZVAL   =   10.000    mass and valenz                      
   RCORE  =    2.300    outmost cutoff radius                                   
   RWIGS  =    2.430; RWIGS  =    1.286    wigner-seitz radius (au A)           
   ENMAX  =  269.532; ENMIN  =  202.149 eV                                      
   RCLOC  =    1.201    cutoff for local pot                                    
   LCOR   =        T    correct aug charges                                     
   LPAW   =        T    paw PP                                                  
   EAUG   =  544.565                                                            
   DEXC   =    0.000                                                            
   RMAX   =    2.357    core radius for proj-oper                               
   RAUG   =    1.300    factor for augmentation sphere                          
   RDEP   =    2.390    radius for radial grids                                 
   RDEPT  =    1.838    core radius for aug-charge                              
                                                                                
   Atomic configuration                                                         
    9 entries                                                                   
     n  l   j            E        occ.                                          
     1  0  0.50     -8206.4253   2.0000                                         
     2  0  0.50      -976.1748   2.0000                                         
     2  1  1.50      -839.0571   6.0000                                         
     3  0  0.50      -105.9991   2.0000                                         
     3  1  1.50       -66.4603   6.0000                                         
     3  2  2.50        -4.6458   9.0000                                         
     4  0  0.50        -4.4926   1.0000                                         
     4  1  1.50        -4.0817   0.0000                                         
     4  3  2.50        -1.3606   0.0000                                         
   Description                                                                  
     l       E           TYP  RCUT    TYP  RCUT                                 
     2     -4.6457903     23  2.300                                             
     2     -6.0063729     23  2.300                                             
     0     -4.4925590     23  2.300                                             
     0      5.0102601     23  2.300                                             
     1     -2.7211652     23  2.300                                             
     1     16.5183231     23  2.300                                             
  local pseudopotential read in
  partial core-charges read in
  partial kinetic energy density read in
  atomic valenz-charges read in
  non local Contribution for L=           2  read in
    real space projection operators read in
  non local Contribution for L=           2  read in
    real space projection operators read in
  non local Contribution for L=           0  read in
    real space projection operators read in
  non local Contribution for L=           0  read in
    real space projection operators read in
  non local Contribution for L=           1  read in
    real space projection operators read in
  non local Contribution for L=           1  read in
    real space projection operators read in
    PAW grid and wavefunctions read in
 
   number of l-projection  operators is LMAX  =           6
   number of lm-projection operators is LMMAX =          18
 
 POTCAR:    PAW_PBE Fe 06Sep2000                  
   VRHFIN =Fe:  d7 s1                                                           
   LEXCH  = PE                                                                  
   EATOM  =   594.3153 eV,   43.6809 Ry                                         
                                                                                
   TITEL  = PAW_PBE Fe 06Sep2000                                                
   LULTRA =        F    use ultrasoft PP ?                                      
   IUNSCR =        1    unscreen: 0-lin 1-nonlin 2-no                           
   RPACOR =    2.000    partial core radius                                     
   POMASS =   55.847; ZVAL   =    8.000    mass and valenz                      
   RCORE  =    2.300    outmost cutoff radius                                   
   RWIGS  =    2.460; RWIGS  =    1.302    wigner-seitz radius (au A)           
   ENMAX  =  267.882; ENMIN  =  200.911 eV                                      
   RCLOC  =    1.701    cutoff for local pot                                    
   LCOR   =        T    correct aug charges                                     
   LPAW   =        T    paw PP                                                  
   EAUG   =  511.368                                                            
   DEXC   =    0.000                                                            
   RMAX   =    2.356    core radius for proj-oper                               
   RAUG   =    1.300    factor for augmentation sphere                          
   RDEP   =    2.442    radius for radial grids                                 
   RDEPT  =    1.890    core radius for aug-charge                              
                                                                                
   Atomic configuration                                                         
    9 entries                                                                   
     n  l   j            E        occ.                                          
     1  0  0.50     -6993.8440   2.0000                                         
     2  0  0.50      -814.6047   2.0000                                         
     2  1  1.50      -693.3689   6.0000                                         
     3  0  0.50       -89.4732   2.0000                                         
     3  1  1.50       -55.6373   6.0000                                         
     3  2  2.50        -3.8151   7.0000                                         
     4  0  0.50        -4.2551   1.0000                                         
     4  1  1.50        -3.4015   0.0000                                         
     4  3  2.50        -1.3606   0.0000                                         
   Description                                                                  
     l       E           TYP  RCUT    TYP  RCUT                                 
     2     -3.8151135     23  2.300                                             
     2     -5.1756961     23  2.300                                             
     0     -4.2550963     23  2.300                                             
     0      7.2035603     23  2.300                                             
     1     -2.7211652     23  2.300                                             
     1     18.4316424     23  2.300                                             
  local pseudopotential read in
  partial core-charges read in
  partial kinetic energy density read in
  atomic valenz-charges read in
  non local Contribution for L=           2  read in
    real space projection operators read in
  non local Contribution for L=           2  read in
    real space projection operators read in
  non local Contribution for L=           0  read in
    real space projection operators read in
  non local Contribution for L=           0  read in
    real space projection operators read in
  non local Contribution for L=           1  read in
    real space projection operators read in
  non local Contribution for L=           1  read in
    real space projection operators read in
    PAW grid and wavefunctions read in
 
   number of l-projection  operators is LMAX  =           6
   number of lm-projection operators is LMMAX =          18
 
 POTCAR:    PAW_PBE O 08Apr2002                   
   VRHFIN =O: s2p4                                                              
   LEXCH  = PE                                                                  
   EATOM  =   432.3788 eV,   31.7789 Ry                                         
                                                                                
   TITEL  = PAW_PBE O 08Apr2002                                                 
   LULTRA =        F    use ultrasoft PP ?                                      
   IUNSCR =        1    unscreen: 0-lin 1-nonlin 2-no                           
   RPACOR =    1.200    partial core radius                                     
   POMASS =   16.000; ZVAL   =    6.000    mass and valenz                      
   RCORE  =    1.520    outmost cutoff radius                                   
   RWIGS  =    1.550; RWIGS  =    0.820    wigner-seitz radius (au A)           
   ENMAX  =  400.000; ENMIN  =  300.000 eV                                      
   ICORE  =        2    local potential                                         
   LCOR   =        T    correct aug charges                                     
   LPAW   =        T    paw PP                                                  
   EAUG   =  605.392                                                            
   DEXC   =    0.000                                                            
   RMAX   =    1.553    core radius for proj-oper                               
   RAUG   =    1.300    factor for augmentation sphere                          
   RDEP   =    1.550    radius for radial grids                                 
   RDEPT  =    1.329    core radius for aug-charge                              
                                                                                
   Atomic configuration                                                         
    4 entries                                                                   
     n  l   j            E        occ.                                          
     1  0  0.50      -514.6923   2.0000                                         
     2  0  0.50       -23.9615   2.0000                                         
     2  1  0.50        -9.0305   4.0000                                         
     3  2  1.50        -9.5241   0.0000                                         
   Description                                                                  
     l       E           TYP  RCUT    TYP  RCUT                                 
     0    -23.9615318     23  1.200                                             
     0     -9.5240782     23  1.200                                             
     1     -9.0304911     23  1.520                                             
     1      8.1634956     23  1.520                                             
     2     -9.5240782      7  1.500                                             
  local pseudopotential read in
  partial core-charges read in
  partial kinetic energy density read in
  kinetic energy density of atom read in
  atomic valenz-charges read in
  non local Contribution for L=           0  read in
    real space projection operators read in
  non local Contribution for L=           0  read in
    real space projection operators read in
  non local Contribution for L=           1  read in
    real space projection operators read in
  non local Contribution for L=           1  read in
    real space projection operators read in
    PAW grid and wavefunctions read in
 
   number of l-projection  operators is LMAX  =           4
   number of lm-projection operators is LMMAX =           8
 
 Optimization of the real space projectors (new method)

 maximal supplied QI-value         = 16.25
 optimisation between [QCUT,QGAM] = [ 11.54, 23.24] = [ 37.28,151.24] Ry 
 Optimized for a Real-space Cutoff    1.45 Angstroem

   l    n(q)    QCUT    max X(q) W(low)/X(q) W(high)/X(q)  e(spline) 
   2      9    11.539    60.317    0.19E-03    0.47E-04    0.16E-06
   2      9    11.539    55.921    0.19E-03    0.48E-04    0.16E-06
   0     10    11.539    51.690    0.80E-04    0.50E-04    0.24E-06
   0     10    11.539    30.015    0.73E-04    0.45E-04    0.22E-06
   1     10    11.539    18.849    0.87E-04    0.16E-03    0.71E-07
   1     10    11.539    14.624    0.73E-04    0.13E-03    0.64E-07
 Optimization of the real space projectors (new method)

 maximal supplied QI-value         = 16.25
 optimisation between [QCUT,QGAM] = [ 11.54, 23.24] = [ 37.28,151.24] Ry 
 Optimized for a Real-space Cutoff    1.53 Angstroem

   l    n(q)    QCUT    max X(q) W(low)/X(q) W(high)/X(q)  e(spline) 
   2     10    11.539    80.901    0.11E-03    0.14E-03    0.21E-06
   2     10    11.539    75.754    0.11E-03    0.14E-03    0.22E-06
   0     11    11.539    58.752    0.52E-04    0.18E-04    0.33E-06
   0     11    11.539    30.679    0.44E-04    0.16E-04    0.30E-06
   1     10    11.539    17.977    0.53E-04    0.29E-04    0.13E-06
   1     10    11.539    13.559    0.44E-04    0.25E-04    0.11E-06
 Optimization of the real space projectors (new method)

 maximal supplied QI-value         = 24.76
 optimisation between [QCUT,QGAM] = [ 11.64, 23.27] = [ 37.91,151.63] Ry 
 Optimized for a Real-space Cutoff    1.14 Angstroem

   l    n(q)    QCUT    max X(q) W(low)/X(q) W(high)/X(q)  e(spline) 
   0      8    11.635    20.381    0.10E-03    0.33E-03    0.24E-06
   0      8    11.635    15.268    0.11E-03    0.35E-03    0.26E-06
   1      7    11.635     5.964    0.24E-03    0.31E-03    0.30E-06
   1      7    11.635     5.382    0.22E-03    0.25E-03    0.26E-06
  PAW_PBE Ni 02Aug2007                  :
 energy of atom  1       EATOM=-1077.6739
 kinetic energy error for atom=    0.0030 (will be added to EATOM!!)
  PAW_PBE Fe 06Sep2000                  :
 energy of atom  2       EATOM= -594.3153
 kinetic energy error for atom=    0.0026 (will be added to EATOM!!)
  PAW_PBE O 08Apr2002                   :
 energy of atom  3       EATOM= -432.3788
 kinetic energy error for atom=    0.0208 (will be added to EATOM!!)
 
 
 POSCAR: POSCAR                                  
  positions in direct lattice
  velocities in cartesian coordinates
 exchange correlation table for  LEXCH =        8
   RHO(1)=    0.500       N(1)  =     2000
   RHO(2)=  100.500       N(2)  =     4000

 VTST: version 3.2, (02/03/18)

 CHAIN: initializing optimizer
 
 OPT: Using VASP Dynamics algorithm
 CHAIN: Read ICHAIN            0
 
 POSCAR: POSCAR                                  
  positions in direct lattice
  velocities in cartesian coordinates
 


--------------------------------------------------------------------------------------------------------


 ion  position               nearest neighbor table
   1  0.999  0.001  0.191-  35 2.46  23 2.50  32 2.50  59 2.51   5 2.52  40 2.52  37 2.52  62 2.52
                             2 2.53   4 2.53  21 2.54  34 2.54
   2  0.248  0.999  0.192-  59 2.46  50 2.47  36 2.48   6 2.49  37 2.50   3 2.51  28 2.52   5 2.52
                            21 2.53   1 2.53  60 2.54   8 2.56
   3  0.499  0.002  0.192-  39 2.47  36 2.49  30 2.50  60 2.51  34 2.51   2 2.51   8 2.52  11 2.52
                             7 2.53  61 2.54  50 2.54  51 2.54
   4  0.998  0.251  0.192-  35 2.46  42 2.49  19 2.50  34 2.50  43 2.50  13 2.50   7 2.53   1 2.53
                            40 2.53  10 2.54   5 2.55  46 2.55
   5  0.249  0.249  0.191-  35 2.46  36 2.48  45 2.50  37 2.50  46 2.50   1 2.52  42 2.52   2 2.52
                             6 2.53  16 2.54   4 2.55  44 2.55
   6  0.334  0.164  0.288-  36 2.47  38 2.47   9 2.48  17 2.49   2 2.49  15 2.53   5 2.53  45 2.53
                            59 2.54  60 2.55  35 2.55  39 2.55
   7  0.749  0.253  0.193-  39 2.43  18 2.46  14 2.49  48 2.49  13 2.51  34 2.51   4 2.53   3 2.53
                            11 2.54  10 2.54  36 2.55  19 2.55
   8  0.418  0.084  0.094-  37 2.49  36 2.51  16 2.51   3 2.52  11 2.52  30 2.53  28 2.53  48 2.56
                             2 2.56
   9  0.416  0.084  0.383-  68 1.86  38 2.45   6 2.48  17 2.50  60 2.52  12 2.53  29 2.53  31 2.54
                            49 2.54  39 2.55
  10  0.834  0.168  0.290-  41 2.45  20 2.47  39 2.49  12 2.49  43 2.49  18 2.51  34 2.51  35 2.52
                             4 2.54   7 2.54  61 2.55  62 2.56
  11  0.668  0.085  0.096-  34 2.51  40 2.51  48 2.51   8 2.52   3 2.52  19 2.53  30 2.54  63 2.54
                             7 2.54
  12  0.667  0.086  0.385-  68 1.85  41 2.45  20 2.47  10 2.49  39 2.52   9 2.53  61 2.53  49 2.55
                            31 2.56  64 2.56
  13  0.999  0.499  0.193-  43 2.44  22 2.46  53 2.50   4 2.50  42 2.51  18 2.51   7 2.51  19 2.52
                            50 2.52  21 2.53  14 2.53  26 2.55
  14  0.748  0.499  0.192-  56 2.47  15 2.48  44 2.48   7 2.49  48 2.49  18 2.50  57 2.52  26 2.52
                            21 2.52  23 2.53  13 2.53  36 2.57
  15  0.583  0.415  0.287-  49 2.44  56 2.47  14 2.48  18 2.49  44 2.49  45 2.50  36 2.50  17 2.52
                             6 2.53  39 2.53  55 2.55  58 2.62
  16  0.420  0.333  0.094-  36 2.51   8 2.51  37 2.52  57 2.52  44 2.52  46 2.53  24 2.54  48 2.54
                             5 2.54
  17  0.413  0.330  0.382-  66 1.88  38 2.44  45 2.48   6 2.49   9 2.50  15 2.52  49 2.52  25 2.53
                            47 2.55  58 2.59
  18  0.829  0.414  0.288-  49 2.43   7 2.46  56 2.47  39 2.47  43 2.48  15 2.49  14 2.50  13 2.51
                            10 2.51  20 2.52  22 2.53  27 2.56
  19  0.919  0.335  0.096-  48 2.49   4 2.50  40 2.51  53 2.51  13 2.52  11 2.53  26 2.54  46 2.54
                             7 2.55
  20  0.911  0.331  0.385-  67 1.86  10 2.47  12 2.47  41 2.48  49 2.52  47 2.52  18 2.52  43 2.54
                            27 2.59  54 2.62
  21  0.998  0.749  0.193-  59 2.44  50 2.48  23 2.48  22 2.49  32 2.50  56 2.51  26 2.52  14 2.52
                             2 2.53  13 2.53   1 2.54  28 2.55
  22  0.080  0.663  0.287-  29 2.45  43 2.46  50 2.46  13 2.46  21 2.49  54 2.50  59 2.51  56 2.52
                            18 2.53  60 2.53  52 2.56  27 2.56
  23  0.753  0.752  0.192-  21 2.48  62 2.48  63 2.49   1 2.50  32 2.51  57 2.52  56 2.53  14 2.53
                            44 2.54  55 2.56  51 2.57  34 2.58
  24  0.417  0.584  0.096-  46 2.49  44 2.50  51 2.51  57 2.52  30 2.52  63 2.53  16 2.54  42 2.56
                            53 2.57
  25  0.409  0.580  0.385-  66 1.89  52 2.46  54 2.48  47 2.52  31 2.53  55 2.53  17 2.53  45 2.54
                            64 2.55  58 2.56
  26  0.916  0.585  0.095-  48 2.48  32 2.48  57 2.50  53 2.51  21 2.52  14 2.52  28 2.53  19 2.54
                            13 2.55
  27  0.910  0.587  0.385-  67 1.88  33 2.44  58 2.46  56 2.47  49 2.50  29 2.55  18 2.56  22 2.56
                            20 2.59  54 2.60
  28  0.167  0.835  0.095-  32 2.48  37 2.49  53 2.50   2 2.52  50 2.53   8 2.53  26 2.53  30 2.54
                            21 2.55
  29  0.164  0.836  0.378-  60 2.41  59 2.42  22 2.45  38 2.48  33 2.51  54 2.51   9 2.53  27 2.55
                            31 2.55
  30  0.417  0.833  0.097-  51 2.49   3 2.50  53 2.52  24 2.52   8 2.53  11 2.54  28 2.54  63 2.54
                            50 2.55
  31  0.414  0.832  0.386-  68 1.86  54 2.46  52 2.49  60 2.50  64 2.52  25 2.53  61 2.53   9 2.54
                            29 2.55  12 2.56
  32  0.920  0.833  0.095-  28 2.48  26 2.48   1 2.50  21 2.50  23 2.51  57 2.53  37 2.54  63 2.54
                            40 2.57
  33  0.913  0.829  0.385-  65 1.91  27 2.44  58 2.47  29 2.51  62 2.53  64 2.54  56 2.54  59 2.58
                            41 2.60  38 2.61
  34  0.749  0.005  0.193-   4 2.50  11 2.51  61 2.51   7 2.51  10 2.51   3 2.51  62 2.51  63 2.54
                             1 2.54  51 2.55  40 2.57  23 2.58
  35  0.082  0.165  0.284-   1 2.46   5 2.46   4 2.46  47 2.48  10 2.52  62 2.53  59 2.54   6 2.55
                            45 2.55  38 2.58  43 2.59  41 2.63
  36  0.493  0.245  0.192-   6 2.47   5 2.48   2 2.48   3 2.49  15 2.50  16 2.51   8 2.51  44 2.52
                            39 2.52   7 2.55  14 2.57  48 2.57
  37  0.171  0.083  0.095-  28 2.49   8 2.49   2 2.50   5 2.50  16 2.52   1 2.52  32 2.54  46 2.57
                            40 2.58
  38  0.174  0.086  0.384-  65 1.85  17 2.44   9 2.45   6 2.47  29 2.48  47 2.55  35 2.58  59 2.58
                            33 2.61  41 2.67
  39  0.587  0.166  0.286-   7 2.43   3 2.47  18 2.47  10 2.49  49 2.50  61 2.50  36 2.52  12 2.52
                            15 2.53   9 2.55   6 2.55  60 2.57
  40  0.917  0.086  0.094-  19 2.51  11 2.51   1 2.52  63 2.53   4 2.53  46 2.55  34 2.57  32 2.57
                            37 2.58
  41  0.908  0.084  0.385-  65 1.84  12 2.45  10 2.45  20 2.48  64 2.52  47 2.53  62 2.56  33 2.60
                            35 2.63  38 2.67
  42  0.246  0.497  0.194-  45 2.48  43 2.48   4 2.49  13 2.51  46 2.51   5 2.52  53 2.54  52 2.54
                            51 2.55  24 2.56  44 2.58  50 2.59
  43  0.077  0.419  0.287-  13 2.44  47 2.45  22 2.46  42 2.48  18 2.48  10 2.49   4 2.50  20 2.54
                            54 2.54  52 2.56  35 2.59  45 2.63
  44  0.503  0.500  0.191-  14 2.48  15 2.49  57 2.49  24 2.50  45 2.50  36 2.52  16 2.52  55 2.52
                            23 2.54   5 2.55  51 2.55  42 2.58
  45  0.336  0.416  0.286-  42 2.48  17 2.48  55 2.48  47 2.49   5 2.50  15 2.50  44 2.50   6 2.53
                            52 2.54  25 2.54  35 2.55  43 2.63
  46  0.171  0.337  0.096-  24 2.49   5 2.50  42 2.51  16 2.53  19 2.54   4 2.55  53 2.55  40 2.55
                            37 2.57
  47  0.160  0.331  0.379-  43 2.45  35 2.48  45 2.49  25 2.52  20 2.52  41 2.53  38 2.55  17 2.55
                            54 2.58
  48  0.673  0.336  0.096-  26 2.48  19 2.49  14 2.49   7 2.49  11 2.51  57 2.53  16 2.54   8 2.56
                            36 2.57
  49  0.666  0.337  0.380-  18 2.43  15 2.44  27 2.50  39 2.50  20 2.52  17 2.52  58 2.52   9 2.54
                            12 2.55
  50  0.245  0.753  0.193-  60 2.45  22 2.46   2 2.47  21 2.48  53 2.51  13 2.52  28 2.53   3 2.54
                            30 2.55  52 2.57  51 2.57  42 2.59
  51  0.498  0.750  0.193-  55 2.49  30 2.49  61 2.51  24 2.51  52 2.52  63 2.52   3 2.54  44 2.55
                            34 2.55  42 2.55  23 2.57  50 2.57
  52  0.335  0.666  0.290-  25 2.46  54 2.46  55 2.47  60 2.48  31 2.49  61 2.50  51 2.52  42 2.54
                            45 2.54  43 2.56  22 2.56  50 2.57
  53  0.165  0.586  0.097-  13 2.50  28 2.50  50 2.51  26 2.51  19 2.51  30 2.52  42 2.54  46 2.55
                            24 2.57
  54  0.170  0.590  0.384-  67 1.84  31 2.46  52 2.46  25 2.48  22 2.50  29 2.51  43 2.54  47 2.58
                            27 2.60  20 2.62
  55  0.578  0.665  0.288-  64 2.47  52 2.47  45 2.48  51 2.49  61 2.52  44 2.52  25 2.53  62 2.54
                            15 2.55  58 2.56  56 2.56  23 2.56
  56  0.829  0.658  0.288-  27 2.47  18 2.47  14 2.47  15 2.47  21 2.51  22 2.52  23 2.53  33 2.54
                            58 2.54  59 2.56  55 2.56  62 2.56
  57  0.668  0.584  0.095-  44 2.49  26 2.50  63 2.51  23 2.52  14 2.52  16 2.52  24 2.52  32 2.53
                            48 2.53
  58  0.667  0.588  0.387-  66 1.82  27 2.46  33 2.47  64 2.48  49 2.52  56 2.54  55 2.56  25 2.56
                            17 2.59  15 2.62
  59  0.082  0.913  0.285-  29 2.42  21 2.44   2 2.46   1 2.51  22 2.51  62 2.52   6 2.54  35 2.54
                            60 2.55  56 2.56  33 2.58  38 2.58
  60  0.333  0.911  0.288-  29 2.41  50 2.45  52 2.48  61 2.49  31 2.50   3 2.51   9 2.52  22 2.53
                             2 2.54   6 2.55  59 2.55  39 2.57
  61  0.582  0.916  0.289-  64 2.46  60 2.49  39 2.50  52 2.50  51 2.51  34 2.51  55 2.52  31 2.53
                            12 2.53   3 2.54  62 2.54  10 2.55
  62  0.832  0.914  0.287-  23 2.48  64 2.50  34 2.51   1 2.52  59 2.52  35 2.53  33 2.53  61 2.54
                            55 2.54  10 2.56  41 2.56  56 2.56
  63  0.668  0.834  0.097-  23 2.49  57 2.51  51 2.52  40 2.53  24 2.53  30 2.54  34 2.54  11 2.54
                            32 2.54
  64  0.663  0.830  0.382-  61 2.46  55 2.47  58 2.48  62 2.50  41 2.52  31 2.52  33 2.54  25 2.55
                            12 2.56
  65  0.004  0.009  0.436-  41 1.84  38 1.85  33 1.91
  66  0.499  0.497  0.439-  58 1.82  17 1.88  25 1.89
  67  0.003  0.503  0.436-  54 1.84  20 1.86  27 1.88
  68  0.499  0.002  0.438-  12 1.85   9 1.86  31 1.86
 

IMPORTANT INFORMATION: All symmetrisations will be switched off!
NOSYMM: (Re-)initialisation of all symmetry stuff for point group C_1.

 
 

Automatic generation of k-mesh.
 generate k-points for:    3    3    1
Space group operators:
 irot       det(A)        alpha          n_x          n_y          n_z        tau_x        tau_y        tau_z
    1     1.000000     0.000000     1.000000     0.000000     0.000000     0.000000     0.000000     0.000000
 
 Subroutine IBZKPT returns following result:
 ===========================================
 
 Found      5 irreducible k-points:
 
 Following reciprocal coordinates:
            Coordinates               Weight
  0.000000  0.000000  0.000000      1.000000
  0.333333  0.000000  0.000000      2.000000
  0.000000  0.333333  0.000000      2.000000
  0.333333  0.333333  0.000000      2.000000
 -0.333333  0.333333  0.000000      2.000000
 
 Following cartesian coordinates:
            Coordinates               Weight
  0.000000  0.000000  0.000000      1.000000
  0.033002  0.019054  0.000000      2.000000
  0.000000  0.038108  0.000000      2.000000
  0.033002  0.057162  0.000000      2.000000
 -0.033002  0.019054  0.000000      2.000000
 
 TETIRR: Found     24 inequivalent tetrahedra from       54


--------------------------------------------------------------------------------------------------------




 Dimension of arrays:
   k-points           NKPTS =      5   k-points in BZ     NKDIM =      5   number of bands    NBANDS=    396
   number of dos      NEDOS =    301   number of ions     NIONS =     68
   non local maximal  LDIM  =      6   non local SUM 2l+1 LMDIM =     18
   total plane-waves  NPLWV = ******
   max r-space proj   IRMAX =   8292   max aug-charges    IRDMAX=  19623
   dimension x,y,z NGX =    80 NGY =   80 NGZ =  160
   dimension x,y,z NGXF=   160 NGYF=  160 NGZF=  320
   support grid    NGXF=   160 NGYF=  160 NGZF=  320
   ions per type =              33  31   4
   NGX,Y,Z   is equivalent  to a cutoff of  13.17, 13.17, 12.52 a.u.
   NGXF,Y,Z  is equivalent  to a cutoff of  26.34, 26.34, 25.03 a.u.

 SYSTEM =  SQS-NiFe                                
 POSCAR =  POSCAR                                  

 Startparameter for this run:
   NWRITE =      2    write-flag & timer
   PREC   = accura    normal or accurate (medium, high low for compatibility)
   ISTART =      1    job   : 0-new  1-cont  2-samecut
   ICHARG =      1    charge: 1-file 2-atom 10-const
   ISPIN  =      2    spin polarized calculation?
   LNONCOLLINEAR =      F non collinear calculations
   LSORBIT =      F    spin-orbit coupling
   INIWAV =      1    electr: 0-lowe 1-rand  2-diag
   LASPH  =      F    aspherical Exc in radial PAW
   METAGGA=      F    non-selfconsistent MetaGGA calc.

 Electronic Relaxation 1
   ENCUT  =  520.0 eV  38.22 Ry    6.18 a.u.  18.78 18.78 39.52*2*pi/ulx,y,z
   ENINI  =  520.0     initial cutoff
   ENAUG  =  605.4 eV  augmentation charge cutoff
   NELM   =    200;   NELMIN=  2; NELMDL=  0     # of ELM steps 
   EDIFF  = 0.1E-05   stopping-criterion for ELM
   LREAL  =      T    real-space projection
   NLSPLINE    = F    spline interpolate recip. space projectors
   LCOMPAT=      F    compatible to vasp.4.4
   GGA_COMPAT  = T    GGA compatible to vasp.4.4-vasp.4.6
   LMAXPAW     = -100 max onsite density
   LMAXMIX     =    2 max onsite mixed and CHGCAR
   VOSKOWN=      0    Vosko Wilk Nusair interpolation
   ROPT   =   -0.00025  -0.00025  -0.00025
 Ionic relaxation
   EDIFFG = -.2E-01   stopping-criterion for IOM
   NSW    =      0    number of steps for IOM
   NBLOCK =      1;   KBLOCK =      1    inner block; outer block 
   IBRION =     -1    ionic relax: 0-MD 1-quasi-New 2-CG
   NFREE  =      0    steps in history (QN), initial steepest desc. (CG)
   ISIF   =      2    stress and relaxation
   IWAVPR =     10    prediction:  0-non 1-charg 2-wave 3-comb
   ISYM   =      0    0-nonsym 1-usesym 2-fastsym
   LCORR  =      T    Harris-Foulkes like correction to forces

   POTIM  = 0.5000    time-step for ionic-motion
   TEIN   =    0.0    initial temperature
   TEBEG  =    0.0;   TEEND  =   0.0 temperature during run
   SMASS  =  -3.00    Nose mass-parameter (am)
   estimated Nose-frequenzy (Omega)   =  0.10E-29 period in steps =****** mass=  -0.233E-26a.u.
   SCALEE = 1.0000    scale energy and forces
   NPACO  =    256;   APACO  = 16.0  distance and # of slots for P.C.
   PSTRESS=    0.0 pullay stress

  Mass of Ions in am
   POMASS =  58.69 55.85 16.00
  Ionic Valenz
   ZVAL   =  10.00  8.00  6.00
  Atomic Wigner-Seitz radii
   RWIGS  =  -1.00 -1.00 -1.00
  virtual crystal weights 
   VCA    =   1.00  1.00  1.00
   NELECT =     602.0000    total number of electrons
   NUPDOWN=      -1.0000    fix difference up-down

 DOS related values:
   EMIN   =  10.00;   EMAX   =-10.00  energy-range for DOS
   EFERMI =   0.00
   ISMEAR =    -5;   SIGMA  =   0.20  broadening in eV -4-tet -1-fermi 0-gaus

 Electronic relaxation 2 (details)
   IALGO  =     68    algorithm
   LDIAG  =      T    sub-space diagonalisation (order eigenvalues)
   LSUBROT=      F    optimize rotation matrix (better conditioning)
   TURBO    =      0    0=normal 1=particle mesh
   IRESTART =      0    0=no restart 2=restart with 2 vectors
   NREBOOT  =      0    no. of reboots
   NMIN     =      0    reboot dimension
   EREF     =   0.00    reference energy to select bands
   IMIX   =      4    mixing-type and parameters
     AMIX     =   0.40;   BMIX     =  1.00
     AMIX_MAG =   1.60;   BMIX_MAG =  1.00
     AMIN     =   0.10
     WC   =   100.;   INIMIX=   1;  MIXPRE=   1;  MAXMIX= -45

 Intra band minimization:
   WEIMIN = 0.0000     energy-eigenvalue tresh-hold
   EBREAK =  0.63E-09  absolut break condition
   DEPER  =   0.30     relativ break condition  

   TIME   =   0.40     timestep for ELM

  volume/ion in A,a.u.               =      27.61       186.35
  Fermi-wavevector in a.u.,A,eV,Ry     =   1.120456  2.117355 17.081047  1.255422
  Thomas-Fermi vector in A             =   2.257103
 
 Write flags
   LWAVE        =      T    write WAVECAR
   LDOWNSAMPLE  =      F    k-point downsampling of WAVECAR
   LCHARG       =      T    write CHGCAR
   LVTOT        =      F    write LOCPOT, total local potential
   LVHAR        =      F    write LOCPOT, Hartree potential only
   LELF         =      F    write electronic localiz. function (ELF)
   LORBIT       =     11    0 simple, 1 ext, 2 COOP (PROOUT), +10 PAW based schemes


 Dipole corrections
   LMONO  =      F    monopole corrections only (constant potential shift)
   LDIPOL =      T    correct potential (dipole corrections)
   IDIPOL =      3    1-x, 2-y, 3-z, 4-all directions 
   EPSILON=  1.0000000 bulk dielectric constant

 Exchange correlation treatment:
   GGA     =    --    GGA type
   LEXCH   =     8    internal setting for exchange type
   VOSKOWN=      0    Vosko Wilk Nusair interpolation
   LHFCALC =     F    Hartree Fock is set to
   LHFONE  =     F    Hartree Fock one center treatment
   AEXX    =    0.0000 exact exchange contribution

 Linear response parameters
   LEPSILON=     F    determine dielectric tensor
   LRPA    =     F    only Hartree local field effects (RPA)
   LNABLA  =     F    use nabla operator in PAW spheres
   LVEL    =     F    velocity operator in full k-point grid
   LINTERFAST=   F  fast interpolation
   KINTER  =     0    interpolate to denser k-point grid
   CSHIFT  =0.1000    complex shift for real part using Kramers Kronig
   OMEGAMAX=  -1.0    maximum frequency
   DEG_THRESHOLD= 0.2000000E-02 threshold for treating states as degnerate
   RTIME   =   -0.100 relaxation time in fs
  (WPLASMAI=    0.000 imaginary part of plasma frequency in eV, 0.658/RTIME)
   DFIELD  = 0.0000000 0.0000000 0.0000000 field for delta impulse in time
 
 Orbital magnetization related:
   ORBITALMAG=     F  switch on orbital magnetization
   LCHIMAG   =     F  perturbation theory with respect to B field
   DQ        =  0.001000  dq finite difference perturbation B field
   LLRAUG    =     F  two centre corrections for induced B field



--------------------------------------------------------------------------------------------------------


 Static calculation
 charge density and potential will be updated during run
 spin polarized calculation
 RMM-DIIS sequential band-by-band and
  variant of blocked Davidson during initial phase
 perform sub-space diagonalisation
    before iterative eigenvector-optimisation
 modified Broyden-mixing scheme, WC =      100.0
 initial mixing is a Kerker type mixing with AMIX =  0.4000 and BMIX =      1.0000
 Hartree-type preconditioning will be used
 using additional bands           95
 real space projection scheme for non local part
 use partial core corrections
 calculate Harris-corrections to forces 
   (improved forces if not selfconsistent)
 use gradient corrections 
 use of overlap-Matrix (Vanderbilt PP)
 Fermi weights with tetrahedron method with Bloechl corrections


--------------------------------------------------------------------------------------------------------


  energy-cutoff  :      520.00
  volume of cell :     1877.75
      direct lattice vectors                 reciprocal lattice vectors
    10.100310000  0.000000000  0.000000000     0.099006862  0.057161638  0.000000000
    -5.050155000  8.747125050  0.000000000     0.000000000  0.114323277  0.000000000
     0.000000000  0.000000000 21.253800000     0.000000000  0.000000000  0.047050410

  length of vectors
    10.100310000 10.100310003 21.253800000     0.114323277  0.114323277  0.047050410


 
 old parameters found on file WAVECAR:
  energy-cutoff  :      520.00
  volume of cell :     1877.75
      direct lattice vectors                 reciprocal lattice vectors
    10.100310000  0.000000000  0.000000000     0.099006862  0.057161638  0.000000000
    -5.050155000  8.747125050  0.000000000     0.000000000  0.114323277  0.000000000
     0.000000000  0.000000000 21.253800000     0.000000000  0.000000000  0.047050410

  length of vectors

 
 k-points in units of 2pi/SCALE and weight: read from INCAR                         
   0.00000000  0.00000000  0.00000000       0.111
   0.03300229  0.01905388  0.00000000       0.222
   0.00000000  0.03810776  0.00000000       0.222
   0.03300229  0.05716164  0.00000000       0.222
  -0.03300229  0.01905388  0.00000000       0.222
 
 k-points in reciprocal lattice and weights: read from INCAR                         
   0.00000000  0.00000000  0.00000000       0.111
   0.33333333  0.00000000  0.00000000       0.222
   0.00000000  0.33333333  0.00000000       0.222
   0.33333333  0.33333333  0.00000000       0.222
  -0.33333333  0.33333333  0.00000000       0.222
 
 position of ions in fractional coordinates (direct lattice) 
   0.99904300  0.00064200  0.19052300
   0.24849100  0.99862800  0.19205500
   0.49902500  0.00192700  0.19180600
   0.99813900  0.25067400  0.19194200
   0.24921500  0.24886200  0.19118600
   0.33359345  0.16362379  0.28756926
   0.74893500  0.25278100  0.19317500
   0.41837500  0.08394000  0.09411800
   0.41592131  0.08436259  0.38322126
   0.83405898  0.16807991  0.29026508
   0.66797000  0.08472300  0.09569300
   0.66674705  0.08583981  0.38506474
   0.99908600  0.49910800  0.19304000
   0.74816900  0.49871100  0.19204600
   0.58274622  0.41461973  0.28662330
   0.41961000  0.33337100  0.09414000
   0.41251540  0.33032575  0.38228783
   0.82904613  0.41409277  0.28796231
   0.91855900  0.33501600  0.09568700
   0.91098470  0.33076744  0.38523403
   0.99765800  0.74896900  0.19256000
   0.08020058  0.66335225  0.28715386
   0.75346500  0.75172800  0.19162900
   0.41737300  0.58352400  0.09623400
   0.40934856  0.57954203  0.38505099
   0.91550800  0.58461900  0.09542900
   0.91038477  0.58650452  0.38530933
   0.16682900  0.83490800  0.09456700
   0.16422081  0.83580495  0.37802504
   0.41715300  0.83338800  0.09679300
   0.41402470  0.83208811  0.38581158
   0.91985100  0.83263700  0.09539800
   0.91329103  0.82915062  0.38477159
   0.74918200  0.00453800  0.19311300
   0.08189193  0.16453940  0.28443200
   0.49319000  0.24544000  0.19167800
   0.17139600  0.08339300  0.09535900
   0.17381778  0.08610749  0.38353373
   0.58713170  0.16610686  0.28633155
   0.91693100  0.08581500  0.09410100
   0.90796414  0.08357329  0.38547197
   0.24596400  0.49669300  0.19369900
   0.07685239  0.41856641  0.28733087
   0.50297300  0.49962100  0.19096300
   0.33570118  0.41552098  0.28649290
   0.17081400  0.33724200  0.09550500
   0.16019717  0.33088681  0.37862207
   0.67264700  0.33598100  0.09600300
   0.66553897  0.33742817  0.38042340
   0.24490500  0.75270000  0.19343600
   0.49840300  0.74988300  0.19260700
   0.33489395  0.66642098  0.29043945
   0.16470600  0.58627100  0.09733100
   0.16951332  0.59028898  0.38388139
   0.57822675  0.66472196  0.28833561
   0.82867807  0.65832301  0.28804318
   0.66762500  0.58426200  0.09519900
   0.66688827  0.58750981  0.38744904
   0.08150806  0.91266343  0.28525812
   0.33327520  0.91133051  0.28835019
   0.58156818  0.91561099  0.28875777
   0.83226167  0.91399090  0.28738013
   0.66841400  0.83351100  0.09659800
   0.66259940  0.83032860  0.38220766
   0.00431087  0.00862833  0.43583937
   0.49942193  0.49682507  0.43853203
   0.00253998  0.50287742  0.43642531
   0.49936569  0.00249764  0.43833054
 
 position of ions in cartesian coordinates  (Angst):
  10.08740180  0.00561565  4.04933774
  -2.53339006  8.73512399  4.08189856
   5.03057555  0.01685571  4.07660636
   8.81557077  2.19267682  4.07949688
   1.26035708  2.17682703  4.06342901
   2.54307174  1.43123773  6.11193945
   6.28789244  2.21110702  4.10570281
   3.80180719  0.73423368  2.00036515
   3.77488999  0.73793015  8.14490812
   7.57542463  1.47021600  6.16923599
   6.31883979  0.74108268  2.03383988
   6.30084755  0.75085158  8.18408907
   7.57050555  4.36576009  4.10283355
   5.03817098  4.36228748  4.08170727
   3.79202358  3.62673063  6.09183439
   2.55461586  2.91603783  2.00083273
   2.49833716  2.88940067  8.12506904
   6.28239029  3.62212122  6.12029343
   7.58584793  2.93042685  2.03371236
   7.53080108  2.89326413  8.18768701
   6.29424553  6.55132550  4.09263173
  -2.53998091  5.80242507  6.10311064
   3.81388716  6.57545882  4.07284444
   1.26871004  5.10415740  2.04533819
   1.20777024  5.06932663  8.18379664
   6.29449804  5.11373550  2.02822888
   6.23322973  5.13022835  8.18928738
  -2.53139019  7.30304468  2.00990810
  -2.56226347  7.31089040  8.03446854
   0.00463604  7.28974905  2.05721906
  -0.02039611  7.27837877  8.19996221
   5.08583435  7.28317996  2.02757001
   5.03718331  7.25268420  8.17785842
   7.54405284  0.03969445  4.10438508
  -0.00381554  1.43924669  6.04526083
   3.74186185  2.14689437  4.07388588
   1.31000516  0.72944900  2.02674111
   1.32075727  0.75319299  8.15154918
   5.09134679  1.45295746  6.08563347
   8.82790830  0.75063454  2.00000383
   8.74866117  0.73102602  8.19274420
  -0.02406399  4.34463578  4.11683981
  -1.33759228  3.66125277  6.10687277
   2.55701973  4.37024736  4.05868941
   1.29224057  3.63461401  6.08906282
   0.02214998  2.94989795  2.02984417
  -0.05298863  2.89430833  8.04715777
   5.09718709  2.93886782  2.04042856
   5.01808541  2.95152639  8.08544280
  -1.32763525  6.58396103  4.11125006
   1.24699942  6.55932037  4.09363066
   0.01700353  5.82926762  6.17294205
  -1.29717776  5.12818575  2.06865361
  -1.26891374  5.16333151  8.15893825
   2.48332049  5.81440613  6.12822737
   5.04527215  5.75843366  6.12201216
   3.79260580  5.11061278  2.02334051
   3.76876269  5.13902176  8.23476449
  -3.78583517  7.98318117  6.06281895
  -1.23617752  7.97152190  6.12853734
   1.25004145  8.00896386  6.13719983
   3.79030517  7.99479272  6.10791980
   2.54182886  7.29082495  2.05307457
   2.49917123  7.26298809  8.12336520
  -0.00003327  0.07547309  9.26324282
   2.53527268  4.34579101  9.32047211
  -2.51395431  4.39873167  9.27569617
   5.03113473  0.02184721  9.31618961
 


--------------------------------------------------------------------------------------------------------


 k-point  1 :   0.0000 0.0000 0.0000  plane waves:   50641
 k-point  2 :   0.3333 0.0000 0.0000  plane waves:   50572
 k-point  3 :   0.0000 0.3333 0.0000  plane waves:   50572
 k-point  4 :   0.3333 0.3333 0.0000  plane waves:   50583
 k-point  5 :  -0.3333 0.3333 0.0000  plane waves:   50572

 maximum and minimum number of plane-waves per node :      2130     2087

 maximum number of plane-waves:     50641
 maximum index in each direction: 
   IXMAX=   19   IYMAX=   18   IZMAX=   39
   IXMIN=  -19   IYMIN=  -19   IZMIN=  -39


 real space projection operators:
  total allocation   :      66769.73 KBytes
  max/ min on nodes  :       3360.86       2428.98


 parallel 3D FFT for wavefunctions:
    minimum data exchange during FFTs selected (reduces bandwidth)
 parallel 3D FFT for charge:
    minimum data exchange during FFTs selected (reduces bandwidth)


 total amount of memory used by VASP MPI-rank0   143259. kBytes
=======================================================================

   base      :      30000. kBytes
   nonlr-proj:      13635. kBytes
   fftplans  :       8122. kBytes
   grid      :      22220. kBytes
   one-center:         93. kBytes
   wavefun   :      69189. kBytes
 
     INWAV:  cpu time   11.4369: real time   11.6554
 Broyden mixing: mesh for mixing (old mesh)
   NGX = 37   NGY = 37   NGZ = 79
  (NGX  =160   NGY  =160   NGZ  =320)
  gives a total of 108151 points

 initial charge density was supplied:
 number of electron     602.0000035 magnetization     101.5650479
 keeping initial charge density in first step


--------------------------------------------------------------------------------------------------------


 Maximum index for non-local projection operator          761
 Maximum index for augmentation-charges         1120 (set IRDMAX)


--------------------------------------------------------------------------------------------------------


 First call to EWALD:  gamma=   0.144
 Maximum number of real-space cells 4x 4x 2
 Maximum number of reciprocal cells 2x 2x 4

    FEWALD:  cpu time    0.0167: real time    0.0165


--------------------------------------- Iteration      1(   1)  ---------------------------------------


    POTLOK:  cpu time    0.5051: real time    0.5137
    SETDIJ:  cpu time    0.0331: real time    0.0331
     EDDAV:  cpu time   55.2954: real time   55.3172
 BZINTS: Fermi energy: -0.029497;602.000000 electrons
         Band energy:***********;  BLOECHL correction: -0.029415
       DOS:  cpu time    0.0476: real time    0.0476
    CHARGE:  cpu time    1.5272: real time    1.5282
    MIXING:  cpu time    0.0093: real time    0.0093
    --------------------------------------------
      LOOP:  cpu time   57.4178: real time   57.4492

 eigenvalue-minimisations  :  8376
 total energy-change (2. order) :-0.4444315E+03  (-0.8290267E-02)
 number of electron     602.0000035 magnetization     101.5435604
 augmentation part      335.0969634 magnetization      84.1100023

 DIPCOR: dipole corrections for dipol
 direction  3 min pos   236,
 dipolmoment           0.000000      0.000000      0.296623 electrons x Angstroem
 Tr[quadrupol]    -10358.865293

 energy correction for charged system         0.000000 eV
 dipol+quadrupol energy correction           -0.004240 eV
 added-field ion interaction         -4.539323 eV  (added to PSCEN)


 Broyden mixing:
  rms(total) = 0.81505E-01    rms(broyden)= 0.81372E-01
  rms(prec ) = 0.84563E-01
  weight for this iteration     100.00

 Free energy of the ion-electron system (eV)
  ---------------------------------------------------
  alpha Z        PSCENC =      1423.32479972
  Ewald energy   TEWEN  =    195291.99291852
  -Hartree energ DENC   =   -249990.80910239
  -exchange      EXHF   =         0.00000000
  -V(xc)+E(xc)   XCENC  =      1260.53262799
  PAW double counting   =     61087.33197013   -63640.82375470
  entropy T*S    EENTRO =         0.00000000
  eigenvalues    EBANDS =     -1592.24632265
  atomic energy  EATOM  =     55716.26538818
  Solvation  Ediel_sol  =         0.00000000
  ---------------------------------------------------
  free energy    TOTEN  =      -444.43147521 eV

  energy without entropy =     -444.43147521  energy(sigma->0) =     -444.43147521


--------------------------------------------------------------------------------------------------------




--------------------------------------- Iteration      1(   2)  ---------------------------------------


    POTLOK:  cpu time    0.5033: real time    0.5140
    SETDIJ:  cpu time    0.0332: real time    0.0332
    EDDIAG:  cpu time    7.1409: real time    7.1428
  RMM-DIIS:  cpu time   29.6911: real time   29.7027
    ORTHCH:  cpu time    1.7523: real time    1.7538
 BZINTS: Fermi energy: -0.031348;602.000000 electrons
         Band energy:***********;  BLOECHL correction: -0.026785
       DOS:  cpu time    0.0476: real time    0.0477
    CHARGE:  cpu time    1.5076: real time    1.5079
    MIXING:  cpu time    0.0093: real time    0.0093
    --------------------------------------------
      LOOP:  cpu time   40.6859: real time   40.7114

 eigenvalue-minimisations  :  8076
 total energy-change (2. order) :-0.1096500E+00  (-0.1169793E-01)
 number of electron     602.0000035 magnetization     101.5428278
 augmentation part      335.1139150 magnetization      84.0307383

 DIPCOR: dipole corrections for dipol
 direction  3 min pos   239,
 dipolmoment           0.000000      0.000000      0.274507 electrons x Angstroem
 Tr[quadrupol]    -10359.017384

 energy correction for charged system         0.000000 eV
 dipol+quadrupol energy correction           -0.003631 eV
 added-field ion interaction         -1.027611 eV  (added to PSCEN)


 Broyden mixing:
  rms(total) = 0.32346E+00    rms(broyden)= 0.32343E+00
  rms(prec ) = 0.37927E+00
  weight for this iteration     100.00

 eigenvalues of (default mixing * dielectric matrix)
  average eigenvalue GAMMA=   0.1666
  0.1666

 Free energy of the ion-electron system (eV)
  ---------------------------------------------------
  alpha Z        PSCENC =      1426.83712031
  Ewald energy   TEWEN  =    195291.99291852
  -Hartree energ DENC   =   -249991.74132058
  -exchange      EXHF   =         0.00000000
  -V(xc)+E(xc)   XCENC  =      1260.52986543
  PAW double counting   =     61086.38590916   -63639.79952393
  entropy T*S    EENTRO =         0.00000000
  eigenvalues    EBANDS =     -1595.01148229
  atomic energy  EATOM  =     55716.26538818
  Solvation  Ediel_sol  =         0.00000000
  ---------------------------------------------------
  free energy    TOTEN  =      -444.54112521 eV

  energy without entropy =     -444.54112521  energy(sigma->0) =     -444.54112521


--------------------------------------------------------------------------------------------------------




--------------------------------------- Iteration      1(   3)  ---------------------------------------


    POTLOK:  cpu time    0.5019: real time    0.5150
    SETDIJ:  cpu time    0.0328: real time    0.0327
    EDDIAG:  cpu time    7.1260: real time    7.1277
  RMM-DIIS:  cpu time   29.8196: real time   29.8333
    ORTHCH:  cpu time    1.7576: real time    1.7587
 BZINTS: Fermi energy: -0.035413;602.000000 electrons
         Band energy:***********;  BLOECHL correction: -0.031199
       DOS:  cpu time    0.0488: real time    0.0488
    CHARGE:  cpu time    1.5085: real time    1.5088
    MIXING:  cpu time    0.0096: real time    0.0096
    --------------------------------------------
      LOOP:  cpu time   40.8041: real time   40.8346

 eigenvalue-minimisations  :  8202
 total energy-change (2. order) : 0.2629185E-01  (-0.3422624E-02)
 number of electron     602.0000035 magnetization     101.5380557
 augmentation part      335.0876147 magnetization      84.0689855

 DIPCOR: dipole corrections for dipol
 direction  3 min pos   239,
 dipolmoment           0.000000      0.000000      0.324111 electrons x Angstroem
 Tr[quadrupol]    -10358.996099

 energy correction for charged system         0.000000 eV
 dipol+quadrupol energy correction           -0.005062 eV
 added-field ion interaction         -1.213301 eV  (added to PSCEN)


 Broyden mixing:
  rms(total) = 0.19019E+00    rms(broyden)= 0.19015E+00
  rms(prec ) = 0.26542E+00
  weight for this iteration     100.00

 eigenvalues of (default mixing * dielectric matrix)
  average eigenvalue GAMMA=   0.2072
  0.3243  0.0901

 Free energy of the ion-electron system (eV)
  ---------------------------------------------------
  alpha Z        PSCENC =      1426.65000019
  Ewald energy   TEWEN  =    195291.99291852
  -Hartree energ DENC   =   -249991.34699711
  -exchange      EXHF   =         0.00000000
  -V(xc)+E(xc)   XCENC  =      1260.54481828
  PAW double counting   =     61086.83216182   -63640.21270347
  entropy T*S    EENTRO =         0.00000000
  eigenvalues    EBANDS =     -1595.24041975
  atomic energy  EATOM  =     55716.26538818
  Solvation  Ediel_sol  =         0.00000000
  ---------------------------------------------------
  free energy    TOTEN  =      -444.51483336 eV

  energy without entropy =     -444.51483336  energy(sigma->0) =     -444.51483336


--------------------------------------------------------------------------------------------------------




--------------------------------------- Iteration      1(   4)  ---------------------------------------


    POTLOK:  cpu time    0.5007: real time    0.5155
    SETDIJ:  cpu time    0.0333: real time    0.0333
    EDDIAG:  cpu time    7.1313: real time    7.1339
  RMM-DIIS:  cpu time   29.9955: real time   30.0073
    ORTHCH:  cpu time    1.7484: real time    1.7488
 BZINTS: Fermi energy: -0.033761;602.000000 electrons
         Band energy:***********;  BLOECHL correction: -0.026582
       DOS:  cpu time    0.0491: real time    0.0491
    CHARGE:  cpu time    1.5129: real time    1.5131
    MIXING:  cpu time    0.0100: real time    0.0099
    --------------------------------------------
      LOOP:  cpu time   40.9811: real time   41.0109

 eigenvalue-minimisations  :  8239
 total energy-change (2. order) : 0.5918843E-02  (-0.1441358E-02)
 number of electron     602.0000035 magnetization     101.5344766
 augmentation part      335.1128304 magnetization      83.9894488

 DIPCOR: dipole corrections for dipol
 direction  3 min pos   238,
 dipolmoment           0.000000      0.000000      0.275130 electrons x Angstroem
 Tr[quadrupol]    -10358.942034

 energy correction for charged system         0.000000 eV
 dipol+quadrupol energy correction           -0.003647 eV
 added-field ion interaction         -2.090094 eV  (added to PSCEN)


 Broyden mixing:
  rms(total) = 0.18533E+00    rms(broyden)= 0.18531E+00
  rms(prec ) = 0.24102E+00
  weight for this iteration     100.00

 eigenvalues of (default mixing * dielectric matrix)
  average eigenvalue GAMMA=   0.2579
  0.5787  0.1397  0.0554

 Free energy of the ion-electron system (eV)
  ---------------------------------------------------
  alpha Z        PSCENC =      1425.77462140
  Ewald energy   TEWEN  =    195291.99291852
  -Hartree energ DENC   =   -249990.70902971
  -exchange      EXHF   =         0.00000000
  -V(xc)+E(xc)   XCENC  =      1260.54225180
  PAW double counting   =     61086.75742901   -63640.18878067
  entropy T*S    EENTRO =         0.00000000
  eigenvalues    EBANDS =     -1594.94371303
  atomic energy  EATOM  =     55716.26538818
  Solvation  Ediel_sol  =         0.00000000
  ---------------------------------------------------
  free energy    TOTEN  =      -444.50891451 eV

  energy without entropy =     -444.50891451  energy(sigma->0) =     -444.50891451


--------------------------------------------------------------------------------------------------------




--------------------------------------- Iteration      1(   5)  ---------------------------------------


    POTLOK:  cpu time    0.5015: real time    0.5142
    SETDIJ:  cpu time    0.0329: real time    0.0329
    EDDIAG:  cpu time    7.1465: real time    7.1492
  RMM-DIIS:  cpu time   29.2558: real time   29.2683
    ORTHCH:  cpu time    1.7540: real time    1.7543
 BZINTS: Fermi energy: -0.029300;602.000000 electrons
         Band energy:***********;  BLOECHL correction: -0.032483
       DOS:  cpu time    0.0500: real time    0.0500
    CHARGE:  cpu time    1.5078: real time    1.5080
    MIXING:  cpu time    0.0104: real time    0.0104
    --------------------------------------------
      LOOP:  cpu time   40.2589: real time   40.2873

 eigenvalue-minimisations  :  8036
 total energy-change (2. order) :-0.5806966E-02  (-0.1181202E-02)
 number of electron     602.0000035 magnetization     101.5282649
 augmentation part      335.0599805 magnetization      84.1474962

 DIPCOR: dipole corrections for dipol
 direction  3 min pos   239,
 dipolmoment           0.000000      0.000000      0.291105 electrons x Angstroem
 Tr[quadrupol]    -10359.011391

 energy correction for charged system         0.000000 eV
 dipol+quadrupol energy correction           -0.004083 eV
 added-field ion interaction         -1.089746 eV  (added to PSCEN)


 Broyden mixing:
  rms(total) = 0.24506E+00    rms(broyden)= 0.24505E+00
  rms(prec ) = 0.27499E+00
  weight for this iteration     100.00

 eigenvalues of (default mixing * dielectric matrix)
  average eigenvalue GAMMA=   0.2128
  0.6105  0.1471  0.0557  0.0380

 Free energy of the ion-electron system (eV)
  ---------------------------------------------------
  alpha Z        PSCENC =      1426.77453330
  Ewald energy   TEWEN  =    195291.99291852
  -Hartree energ DENC   =   -249991.65951048
  -exchange      EXHF   =         0.00000000
  -V(xc)+E(xc)   XCENC  =      1260.53185461
  PAW double counting   =     61086.68118634   -63640.07896322
  entropy T*S    EENTRO =         0.00000000
  eigenvalues    EBANDS =     -1595.02212872
  atomic energy  EATOM  =     55716.26538818
  Solvation  Ediel_sol  =         0.00000000
  ---------------------------------------------------
  free energy    TOTEN  =      -444.51472148 eV

  energy without entropy =     -444.51472148  energy(sigma->0) =     -444.51472148


--------------------------------------------------------------------------------------------------------




--------------------------------------- Iteration      1(   6)  ---------------------------------------


    POTLOK:  cpu time    0.5026: real time    0.5181
    SETDIJ:  cpu time    0.0330: real time    0.0330
    EDDIAG:  cpu time    7.1276: real time    7.1300
  RMM-DIIS:  cpu time   29.4968: real time   29.5095
    ORTHCH:  cpu time    1.7428: real time    1.7430
 BZINTS: Fermi energy: -0.032616;602.000000 electrons
         Band energy:***********;  BLOECHL correction: -0.029202
       DOS:  cpu time    0.0490: real time    0.0490
    CHARGE:  cpu time    1.5163: real time    1.5166
    MIXING:  cpu time    0.0104: real time    0.0103
    --------------------------------------------
      LOOP:  cpu time   40.4784: real time   40.5096

 eigenvalue-minimisations  :  8098
 total energy-change (2. order) : 0.1694575E-01  (-0.3622422E-03)
 number of electron     602.0000035 magnetization     101.5240688
 augmentation part      335.0819072 magnetization      84.0464262

 DIPCOR: dipole corrections for dipol
 direction  3 min pos   239,
 dipolmoment           0.000000      0.000000      0.294128 electrons x Angstroem
 Tr[quadrupol]    -10359.006882

 energy correction for charged system         0.000000 eV
 dipol+quadrupol energy correction           -0.004169 eV
 added-field ion interaction         -1.101062 eV  (added to PSCEN)


 Broyden mixing:
  rms(total) = 0.62108E-01    rms(broyden)= 0.62095E-01
  rms(prec ) = 0.68130E-01
  weight for this iteration     100.00

 eigenvalues of (default mixing * dielectric matrix)
  average eigenvalue GAMMA=   0.2339
  0.5443  0.3606  0.1323  0.0535  0.0790

 Free energy of the ion-electron system (eV)
  ---------------------------------------------------
  alpha Z        PSCENC =      1426.76313163
  Ewald energy   TEWEN  =    195291.99291852
  -Hartree energ DENC   =   -249991.53170280
  -exchange      EXHF   =         0.00000000
  -V(xc)+E(xc)   XCENC  =      1260.51752988
  PAW double counting   =     61086.64963009   -63640.05517345
  entropy T*S    EENTRO =         0.00000000
  eigenvalues    EBANDS =     -1595.09949777
  atomic energy  EATOM  =     55716.26538818
  Solvation  Ediel_sol  =         0.00000000
  ---------------------------------------------------
  free energy    TOTEN  =      -444.49777573 eV

  energy without entropy =     -444.49777573  energy(sigma->0) =     -444.49777573


--------------------------------------------------------------------------------------------------------




--------------------------------------- Iteration      1(   7)  ---------------------------------------


    POTLOK:  cpu time    0.5020: real time    0.5176
    SETDIJ:  cpu time    0.0331: real time    0.0331
    EDDIAG:  cpu time    7.1482: real time    7.1508
  RMM-DIIS:  cpu time   29.7432: real time   29.7557
    ORTHCH:  cpu time    1.7752: real time    1.7756
 BZINTS: Fermi energy: -0.034680;602.000000 electrons
         Band energy:***********;  BLOECHL correction: -0.029683
       DOS:  cpu time    0.0444: real time    0.0444
    CHARGE:  cpu time    1.5308: real time    1.5311
    MIXING:  cpu time    0.0105: real time    0.0105
    --------------------------------------------
      LOOP:  cpu time   40.7882: real time   40.8186

 eigenvalue-minimisations  :  8143
 total energy-change (2. order) :-0.4764239E-03  (-0.2550637E-03)
 number of electron     602.0000035 magnetization     101.5103666
 augmentation part      335.0887270 magnetization      84.0436843

 DIPCOR: dipole corrections for dipol
 direction  3 min pos   240,
 dipolmoment           0.000000      0.000000      0.294130 electrons x Angstroem
 Tr[quadrupol]    -10359.029083

 energy correction for charged system         0.000000 eV
 dipol+quadrupol energy correction           -0.004169 eV
 added-field ion interaction          0.032298 eV  (added to PSCEN)


 Broyden mixing:
  rms(total) = 0.84167E-01    rms(broyden)= 0.84165E-01
  rms(prec ) = 0.93270E-01
  weight for this iteration     100.00

 eigenvalues of (default mixing * dielectric matrix)
  average eigenvalue GAMMA=   0.3383
  0.8155  0.8155  0.1537  0.1262  0.0664  0.0525

 Free energy of the ion-electron system (eV)
  ---------------------------------------------------
  alpha Z        PSCENC =      1427.89649165
  Ewald energy   TEWEN  =    195291.99291852
  -Hartree energ DENC   =   -249990.89006348
  -exchange      EXHF   =         0.00000000
  -V(xc)+E(xc)   XCENC  =      1260.50782433
  PAW double counting   =     61086.24147900   -63639.60079103
  entropy T*S    EENTRO =         0.00000000
  eigenvalues    EBANDS =     -1596.91149930
  atomic energy  EATOM  =     55716.26538818
  Solvation  Ediel_sol  =         0.00000000
  ---------------------------------------------------
  free energy    TOTEN  =      -444.49825215 eV

  energy without entropy =     -444.49825215  energy(sigma->0) =     -444.49825215


--------------------------------------------------------------------------------------------------------




--------------------------------------- Iteration      1(   8)  ---------------------------------------


    POTLOK:  cpu time    0.5169: real time    0.5176
    SETDIJ:  cpu time    0.0330: real time    0.0330
    EDDIAG:  cpu time    7.1704: real time    7.1729
  RMM-DIIS:  cpu time   29.9157: real time   29.9283
    ORTHCH:  cpu time    1.7610: real time    1.7614
 BZINTS: Fermi energy: -0.035103;602.000000 electrons
         Band energy:***********;  BLOECHL correction: -0.029500
       DOS:  cpu time    0.0489: real time    0.0489
    CHARGE:  cpu time    1.5286: real time    1.5289
    MIXING:  cpu time    0.0112: real time    0.0112
    --------------------------------------------
      LOOP:  cpu time   40.9849: real time   41.0022

 eigenvalue-minimisations  :  8187
 total energy-change (2. order) : 0.1562213E-02  (-0.1189181E-03)
 number of electron     602.0000035 magnetization     101.5048856
 augmentation part      335.0969937 magnetization      84.0359753

 DIPCOR: dipole corrections for dipol
 direction  3 min pos   240,
 dipolmoment           0.000000      0.000000      0.295450 electrons x Angstroem
 Tr[quadrupol]    -10359.035078

 energy correction for charged system         0.000000 eV
 dipol+quadrupol energy correction           -0.004206 eV
 added-field ion interaction          0.032443 eV  (added to PSCEN)


 Broyden mixing:
  rms(total) = 0.69714E-01    rms(broyden)= 0.69712E-01
  rms(prec ) = 0.77417E-01
  weight for this iteration     100.00

 eigenvalues of (default mixing * dielectric matrix)
  average eigenvalue GAMMA=   0.3374
  0.8733  0.8733  0.2200  0.1552  0.1190  0.0528  0.0683

 Free energy of the ion-electron system (eV)
  ---------------------------------------------------
  alpha Z        PSCENC =      1427.89659906
  Ewald energy   TEWEN  =    195291.99291852
  -Hartree energ DENC   =   -249990.95670227
  -exchange      EXHF   =         0.00000000
  -V(xc)+E(xc)   XCENC  =      1260.50183931
  PAW double counting   =     61085.70677511   -63639.03136858
  entropy T*S    EENTRO =         0.00000000
  eigenvalues    EBANDS =     -1596.87213926
  atomic energy  EATOM  =     55716.26538818
  Solvation  Ediel_sol  =         0.00000000
  ---------------------------------------------------
  free energy    TOTEN  =      -444.49668994 eV

  energy without entropy =     -444.49668994  energy(sigma->0) =     -444.49668994


--------------------------------------------------------------------------------------------------------




--------------------------------------- Iteration      1(   9)  ---------------------------------------


    POTLOK:  cpu time    0.5032: real time    0.5167
    SETDIJ:  cpu time    0.0330: real time    0.0330
    EDDIAG:  cpu time    7.1463: real time    7.1489
  RMM-DIIS:  cpu time   30.0294: real time   30.0421
    ORTHCH:  cpu time    1.7747: real time    1.7750
 BZINTS: Fermi energy: -0.036792;602.000000 electrons
         Band energy:***********;  BLOECHL correction: -0.029619
       DOS:  cpu time    0.0432: real time    0.0432
    CHARGE:  cpu time    1.5280: real time    1.5282
    MIXING:  cpu time    0.0117: real time    0.0117
    --------------------------------------------
      LOOP:  cpu time   41.0701: real time   41.0989

 eigenvalue-minimisations  :  8228
 total energy-change (2. order) : 0.4643061E-03  (-0.8255854E-04)
 number of electron     602.0000035 magnetization     101.4907357
 augmentation part      335.0862963 magnetization      84.0302923

 DIPCOR: dipole corrections for dipol
 direction  3 min pos   241,
 dipolmoment           0.000000      0.000000      0.296443 electrons x Angstroem
 Tr[quadrupol]    -10359.069330

 energy correction for charged system         0.000000 eV
 dipol+quadrupol energy correction           -0.004234 eV
 added-field ion interaction          1.174829 eV  (added to PSCEN)


 Broyden mixing:
  rms(total) = 0.65409E-01    rms(broyden)= 0.65408E-01
  rms(prec ) = 0.73324E-01
  weight for this iteration     100.00

 eigenvalues of (default mixing * dielectric matrix)
  average eigenvalue GAMMA=   0.4011
  1.0295  1.0295  0.6208  0.0527  0.0676  0.1603  0.1311  0.1174

 Free energy of the ion-electron system (eV)
  ---------------------------------------------------
  alpha Z        PSCENC =      1429.03895746
  Ewald energy   TEWEN  =    195291.99291852
  -Hartree energ DENC   =   -249990.94403994
  -exchange      EXHF   =         0.00000000
  -V(xc)+E(xc)   XCENC  =      1260.51168197
  PAW double counting   =     61085.74768866   -63639.10467873
  entropy T*S    EENTRO =         0.00000000
  eigenvalues    EBANDS =     -1598.00414174
  atomic energy  EATOM  =     55716.26538818
  Solvation  Ediel_sol  =         0.00000000
  ---------------------------------------------------
  free energy    TOTEN  =      -444.49622563 eV

  energy without entropy =     -444.49622563  energy(sigma->0) =     -444.49622563


--------------------------------------------------------------------------------------------------------




--------------------------------------- Iteration      1(  10)  ---------------------------------------


    POTLOK:  cpu time    0.5007: real time    0.5149
    SETDIJ:  cpu time    0.0333: real time    0.0333
    EDDIAG:  cpu time    7.1408: real time    7.1434
  RMM-DIIS:  cpu time   29.7882: real time   29.8025
    ORTHCH:  cpu time    1.7684: real time    1.7688
 BZINTS: Fermi energy: -0.040238;602.000000 electrons
         Band energy:***********;  BLOECHL correction: -0.029630
       DOS:  cpu time    0.0489: real time    0.0489
    CHARGE:  cpu time    1.5320: real time    1.5326
    MIXING:  cpu time    0.0121: real time    0.0122
    --------------------------------------------
      LOOP:  cpu time   40.8237: real time   40.8565

 eigenvalue-minimisations  :  8143
 total energy-change (2. order) : 0.1856144E-03  (-0.4970710E-04)
 number of electron     602.0000035 magnetization     101.4840928
 augmentation part      335.0879487 magnetization      84.0257948

 DIPCOR: dipole corrections for dipol
 direction  3 min pos   243,
 dipolmoment           0.000000      0.000000      0.294880 electrons x Angstroem
 Tr[quadrupol]    -10359.147526

 energy correction for charged system         0.000000 eV
 dipol+quadrupol energy correction           -0.004190 eV
 added-field ion interaction          3.441145 eV  (added to PSCEN)


 Broyden mixing:
  rms(total) = 0.71750E-01    rms(broyden)= 0.71750E-01
  rms(prec ) = 0.79406E-01
  weight for this iteration     100.00

 eigenvalues of (default mixing * dielectric matrix)
  average eigenvalue GAMMA=   0.3871
  1.0736  1.0736  0.6583  0.0527  0.0679  0.1532  0.1532  0.1376  0.1143

 Free energy of the ion-electron system (eV)
  ---------------------------------------------------
  alpha Z        PSCENC =      1431.30531775
  Ewald energy   TEWEN  =    195291.99291852
  -Hartree energ DENC   =   -249990.93127134
  -exchange      EXHF   =         0.00000000
  -V(xc)+E(xc)   XCENC  =      1260.51298499
  PAW double counting   =     61085.49223239   -63638.86872157
  entropy T*S    EENTRO =         0.00000000
  eigenvalues    EBANDS =     -1600.26488892
  atomic energy  EATOM  =     55716.26538818
  Solvation  Ediel_sol  =         0.00000000
  ---------------------------------------------------
  free energy    TOTEN  =      -444.49604002 eV

  energy without entropy =     -444.49604002  energy(sigma->0) =     -444.49604002


--------------------------------------------------------------------------------------------------------




--------------------------------------- Iteration      1(  11)  ---------------------------------------


    POTLOK:  cpu time    0.5012: real time    0.5164
    SETDIJ:  cpu time    0.0331: real time    0.0331
    EDDIAG:  cpu time    7.1471: real time    7.1501
  RMM-DIIS:  cpu time   29.7174: real time   29.7325
    ORTHCH:  cpu time    1.7703: real time    1.7707
 BZINTS: Fermi energy: -0.041766;602.000000 electrons
         Band energy:***********;  BLOECHL correction: -0.029648
       DOS:  cpu time    0.0466: real time    0.0466
    CHARGE:  cpu time    1.5297: real time    1.5301
    MIXING:  cpu time    0.0119: real time    0.0119
    --------------------------------------------
      LOOP:  cpu time   40.7573: real time   40.7914

 eigenvalue-minimisations  :  8132
 total energy-change (2. order) : 0.1564718E-03  (-0.2239441E-04)
 number of electron     602.0000035 magnetization     101.4863580
 augmentation part      335.0836924 magnetization      84.0346230

 DIPCOR: dipole corrections for dipol
 direction  3 min pos   244,
 dipolmoment           0.000000      0.000000      0.295008 electrons x Angstroem
 Tr[quadrupol]    -10359.190072

 energy correction for charged system         0.000000 eV
 dipol+quadrupol energy correction           -0.004194 eV
 added-field ion interaction          4.579390 eV  (added to PSCEN)


 Broyden mixing:
  rms(total) = 0.73549E-01    rms(broyden)= 0.73549E-01
  rms(prec ) = 0.81633E-01
  weight for this iteration     100.00

 eigenvalues of (default mixing * dielectric matrix)
  average eigenvalue GAMMA=   0.4111
  1.0932  1.0932  0.5832  0.6574  0.0527  0.0678  0.1595  0.1595  0.1146  0.1302

 Free energy of the ion-electron system (eV)
  ---------------------------------------------------
  alpha Z        PSCENC =      1432.44355897
  Ewald energy   TEWEN  =    195291.99291852
  -Hartree energ DENC   =   -249991.02672322
  -exchange      EXHF   =         0.00000000
  -V(xc)+E(xc)   XCENC  =      1260.51690801
  PAW double counting   =     61085.45134839   -63638.83972864
  entropy T*S    EENTRO =         0.00000000
  eigenvalues    EBANDS =     -1601.29955374
  atomic energy  EATOM  =     55716.26538818
  Solvation  Ediel_sol  =         0.00000000
  ---------------------------------------------------
  free energy    TOTEN  =      -444.49588355 eV

  energy without entropy =     -444.49588355  energy(sigma->0) =     -444.49588355


--------------------------------------------------------------------------------------------------------




--------------------------------------- Iteration      1(  12)  ---------------------------------------


    POTLOK:  cpu time    0.5014: real time    0.5163
    SETDIJ:  cpu time    0.0332: real time    0.0332
    EDDIAG:  cpu time    7.2548: real time    7.2579
  RMM-DIIS:  cpu time   31.3712: real time   31.3873
    ORTHCH:  cpu time    1.7455: real time    1.7467
 BZINTS: Fermi energy: -0.043626;602.000000 electrons
         Band energy:***********;  BLOECHL correction: -0.029612
       DOS:  cpu time    0.0466: real time    0.0467
    CHARGE:  cpu time    1.5092: real time    1.5096
    MIXING:  cpu time    0.0122: real time    0.0122
    --------------------------------------------
      LOOP:  cpu time   42.4742: real time   42.5099

 eigenvalue-minimisations  :  8605
 total energy-change (2. order) : 0.8115746E-04  (-0.1808981E-05)
 number of electron     602.0000035 magnetization     101.4916265
 augmentation part      335.0831340 magnetization      84.0384212

 DIPCOR: dipole corrections for dipol
 direction  3 min pos   245,
 dipolmoment           0.000000      0.000000      0.294959 electrons x Angstroem
 Tr[quadrupol]    -10359.230862

 energy correction for charged system         0.000000 eV
 dipol+quadrupol energy correction           -0.004192 eV
 added-field ion interaction          5.715184 eV  (added to PSCEN)


 Broyden mixing:
  rms(total) = 0.71517E-01    rms(broyden)= 0.71517E-01
  rms(prec ) = 0.79297E-01
  weight for this iteration     100.00

 eigenvalues of (default mixing * dielectric matrix)
  average eigenvalue GAMMA=   0.4476
  1.1843  1.1157  1.1157  0.6630  0.0527  0.0678  0.1745  0.1745  0.1386  0.1215
  0.1155

 Free energy of the ion-electron system (eV)
  ---------------------------------------------------
  alpha Z        PSCENC =      1433.57935422
  Ewald energy   TEWEN  =    195291.99291852
  -Hartree energ DENC   =   -249991.05946174
  -exchange      EXHF   =         0.00000000
  -V(xc)+E(xc)   XCENC  =      1260.51649843
  PAW double counting   =     61085.48373497   -63638.87480029
  entropy T*S    EENTRO =         0.00000000
  eigenvalues    EBANDS =     -1602.39943468
  atomic energy  EATOM  =     55716.26538818
  Solvation  Ediel_sol  =         0.00000000
  ---------------------------------------------------
  free energy    TOTEN  =      -444.49580239 eV

  energy without entropy =     -444.49580239  energy(sigma->0) =     -444.49580239


--------------------------------------------------------------------------------------------------------




--------------------------------------- Iteration      1(  13)  ---------------------------------------


    POTLOK:  cpu time    0.5128: real time    0.5137
    SETDIJ:  cpu time    0.0330: real time    0.0330
    EDDIAG:  cpu time    7.2759: real time    7.2781
  RMM-DIIS:  cpu time   29.5002: real time   29.5127
    ORTHCH:  cpu time    1.7590: real time    1.7600
 BZINTS: Fermi energy: -0.043829;602.000000 electrons
         Band energy:***********;  BLOECHL correction: -0.029544
       DOS:  cpu time    0.0478: real time    0.0479
    CHARGE:  cpu time    1.5000: real time    1.5003
    MIXING:  cpu time    0.0129: real time    0.0129
    --------------------------------------------
      LOOP:  cpu time   40.6417: real time   40.6586

 eigenvalue-minimisations  :  8072
 total energy-change (2. order) : 0.2169838E-03  (-0.5525196E-05)
 number of electron     602.0000035 magnetization     101.5085837
 augmentation part      335.0845258 magnetization      84.0513276

 DIPCOR: dipole corrections for dipol
 direction  3 min pos   245,
 dipolmoment           0.000000      0.000000      0.294660 electrons x Angstroem
 Tr[quadrupol]    -10359.229393

 energy correction for charged system         0.000000 eV
 dipol+quadrupol energy correction           -0.004184 eV
 added-field ion interaction          5.709407 eV  (added to PSCEN)


 Broyden mixing:
  rms(total) = 0.66266E-01    rms(broyden)= 0.66266E-01
  rms(prec ) = 0.73345E-01
  weight for this iteration     100.00

 eigenvalues of (default mixing * dielectric matrix)
  average eigenvalue GAMMA=   0.5886
  2.6868  1.1919  1.1919  0.6726  0.4881  0.0527  0.0678  0.1787  0.1548  0.1145
  0.1360  0.1271

 Free energy of the ion-electron system (eV)
  ---------------------------------------------------
  alpha Z        PSCENC =      1433.57358620
  Ewald energy   TEWEN  =    195291.99291852
  -Hartree energ DENC   =   -249991.02701720
  -exchange      EXHF   =         0.00000000
  -V(xc)+E(xc)   XCENC  =      1260.51470349
  PAW double counting   =     61085.50470123   -63638.89522105
  entropy T*S    EENTRO =         0.00000000
  eigenvalues    EBANDS =     -1602.42464477
  atomic energy  EATOM  =     55716.26538818
  Solvation  Ediel_sol  =         0.00000000
  ---------------------------------------------------
  free energy    TOTEN  =      -444.49558540 eV

  energy without entropy =     -444.49558540  energy(sigma->0) =     -444.49558540


--------------------------------------------------------------------------------------------------------




--------------------------------------- Iteration      1(  14)  ---------------------------------------


    POTLOK:  cpu time    0.5000: real time    0.5117
    SETDIJ:  cpu time    0.0329: real time    0.0329
    EDDIAG:  cpu time    7.2600: real time    7.2632
  RMM-DIIS:  cpu time   29.4667: real time   29.4822
    ORTHCH:  cpu time    1.7520: real time    1.7532
 BZINTS: Fermi energy: -0.044184;602.000000 electrons
         Band energy:***********;  BLOECHL correction: -0.029344
       DOS:  cpu time    0.0476: real time    0.0476
    CHARGE:  cpu time    1.4977: real time    1.4980
    MIXING:  cpu time    0.0131: real time    0.0131
    --------------------------------------------
      LOOP:  cpu time   40.5700: real time   40.6019

 eigenvalue-minimisations  :  8066
 total energy-change (2. order) : 0.4093006E-03  (-0.3502837E-04)
 number of electron     602.0000035 magnetization     101.5313002
 augmentation part      335.0851317 magnetization      84.0697379

 DIPCOR: dipole corrections for dipol
 direction  3 min pos   245,
 dipolmoment           0.000000      0.000000      0.295395 electrons x Angstroem
 Tr[quadrupol]    -10359.230941

 energy correction for charged system         0.000000 eV
 dipol+quadrupol energy correction           -0.004205 eV
 added-field ion interaction          5.723637 eV  (added to PSCEN)


 Broyden mixing:
  rms(total) = 0.58510E-01    rms(broyden)= 0.58509E-01
  rms(prec ) = 0.65112E-01
  weight for this iteration     100.00

 eigenvalues of (default mixing * dielectric matrix)
  average eigenvalue GAMMA=   0.6821
  3.9626  1.2785  1.2785  0.7115  0.6198  0.2065  0.0527  0.0678  0.1668  0.1519
  0.1147  0.1319  0.1247

 Free energy of the ion-electron system (eV)
  ---------------------------------------------------
  alpha Z        PSCENC =      1433.58779462
  Ewald energy   TEWEN  =    195291.99291852
  -Hartree energ DENC   =   -249991.09405051
  -exchange      EXHF   =         0.00000000
  -V(xc)+E(xc)   XCENC  =      1260.51290000
[...]
   0.927E+01 -.183E+02 -.251E+04   -.949E+01 0.183E+02 0.251E+04   0.212E+00 -.750E-02 0.292E+01   0.266E-03 -.821E-03 0.335E-02
   -.568E+02 0.747E+02 0.273E+04   0.568E+02 -.750E+02 -.273E+04   0.235E-01 0.325E+00 -.153E+01   0.101E-02 0.923E-03 -.698E-04
   -.493E+02 0.174E+03 -.249E+04   0.492E+02 -.177E+03 0.249E+04   0.115E+00 0.242E+01 0.702E+00   0.360E-03 -.892E-03 0.265E-02
   0.958E+02 -.480E+02 0.283E+04   -.962E+02 0.483E+02 -.283E+04   0.303E+00 -.218E+00 -.531E+00   -.737E-03 -.174E-02 0.524E-03
   0.783E+02 0.479E+02 -.249E+04   -.784E+02 -.505E+02 0.249E+04   0.119E+00 0.256E+01 0.134E+01   0.481E-03 -.139E-02 0.202E-02
   -.118E+02 0.809E+02 0.774E+03   0.119E+02 -.814E+02 -.774E+03   -.695E-01 0.496E+00 -.332E+00   -.447E-03 0.180E-03 0.200E-02
   0.796E+01 -.766E+01 -.637E+03   -.796E+01 0.758E+01 0.637E+03   0.174E-01 0.811E-01 -.635E-01   -.266E-03 0.115E-02 0.348E-02
   0.129E+02 -.356E+02 0.819E+03   -.129E+02 0.357E+02 -.819E+03   -.506E-01 -.133E+00 -.379E+00   0.104E-02 0.159E-02 0.233E-02
   0.639E+02 -.473E+02 0.226E+04   -.643E+02 0.477E+02 -.226E+04   0.376E+00 -.371E+00 -.241E+01   -.578E-04 0.683E-04 -.155E-03
   0.516E+01 -.653E+02 -.199E+04   -.441E+01 0.658E+02 0.199E+04   -.712E+00 -.523E+00 0.173E+01   0.393E-03 0.556E-03 0.176E-02
   0.192E+02 0.519E+02 -.595E+03   -.192E+02 -.521E+02 0.594E+03   -.604E-02 0.181E+00 0.542E+00   0.311E-03 0.112E-02 0.276E-02
   -.178E+02 0.135E+02 0.225E+04   0.181E+02 -.135E+02 -.225E+04   -.211E+00 -.103E+00 -.291E+01   -.151E-02 0.543E-04 0.273E-03
   0.238E+02 -.224E+02 -.200E+04   -.246E+02 0.231E+02 0.200E+04   0.768E+00 -.607E+00 0.197E+01   -.127E-03 0.485E-03 0.999E-03
   -.578E+02 -.547E+02 0.758E+03   0.578E+02 0.550E+02 -.758E+03   0.678E-01 -.241E+00 -.463E+00   -.124E-03 -.373E-03 0.297E-02
   -.137E+03 -.306E+01 -.632E+03   0.137E+03 0.322E+01 0.632E+03   -.805E+00 -.190E+00 0.384E+00   -.330E-03 -.334E-03 0.352E-02
   0.718E+02 -.477E+02 0.802E+03   -.722E+02 0.478E+02 -.802E+03   0.256E+00 -.127E+00 -.770E+00   0.175E-02 -.246E-03 0.306E-02
   0.643E+02 -.469E+02 -.570E+03   -.648E+02 0.471E+02 0.569E+03   0.546E+00 -.249E+00 0.892E+00   0.653E-03 0.954E-04 0.418E-02
   0.206E+01 -.545E+01 0.223E+04   -.196E+01 0.514E+01 -.223E+04   -.844E-01 0.175E+00 -.282E+01   -.666E-03 0.667E-04 0.111E-03
   -.373E+01 0.178E+02 -.198E+04   0.388E+01 -.177E+02 0.198E+04   -.123E+00 -.497E-01 0.433E+01   0.787E-03 0.711E-03 0.113E-02
   0.436E+02 -.593E+01 0.225E+04   -.438E+02 0.589E+01 -.225E+04   0.163E+00 -.213E+00 -.249E+01   0.660E-03 0.267E-03 0.118E-02
   0.272E+02 -.234E+01 -.207E+04   -.271E+02 0.265E+01 0.207E+04   -.118E+00 -.302E+00 0.416E+01   -.186E-03 0.537E-03 0.134E-02
   -.116E+03 0.435E+02 0.763E+03   0.116E+03 -.439E+02 -.763E+03   -.333E+00 0.300E+00 -.344E+00   -.182E-03 -.768E-03 0.209E-02
   -.108E+02 0.358E+02 0.748E+03   0.109E+02 -.358E+02 -.747E+03   -.168E+00 -.648E-01 -.663E+00   0.102E-02 0.406E-03 0.234E-02
   -.510E+02 0.262E+02 -.585E+03   0.511E+02 -.262E+02 0.586E+03   -.894E-01 0.114E-02 -.487E+00   0.753E-03 -.639E-03 0.453E-02
   -.758E+02 0.211E+02 0.220E+04   0.762E+02 -.211E+02 -.220E+04   -.332E+00 0.132E+00 -.288E+01   -.105E-02 -.369E-03 0.133E-03
   -.136E+03 -.768E+01 -.199E+04   0.137E+03 0.824E+01 0.199E+04   -.108E+01 -.536E+00 0.138E+01   0.312E-03 0.265E-03 0.155E-02
   0.248E+02 -.348E+02 -.595E+03   -.247E+02 0.351E+02 0.594E+03   -.152E-01 -.280E+00 0.457E+00   0.637E-03 -.872E-03 0.374E-02
   0.937E+02 -.709E+02 -.648E+03   -.940E+02 0.713E+02 0.649E+03   0.250E+00 -.420E+00 -.662E+00   -.527E-03 -.150E-02 0.274E-02
   0.561E+02 -.414E+01 0.224E+04   -.562E+02 0.403E+01 -.224E+04   0.192E+00 0.139E+00 -.291E+01   0.848E-03 -.653E-04 0.892E-03
   -.533E+02 -.855E+02 -.202E+04   0.542E+02 0.861E+02 0.202E+04   -.925E+00 -.670E+00 0.154E+01   -.596E-03 -.446E-03 0.583E-03
   0.611E+02 -.397E+02 -.616E+03   -.616E+02 0.399E+02 0.616E+03   0.476E+00 -.300E+00 0.420E+00   -.567E-03 -.661E-03 0.410E-02
   -.469E+02 0.201E+02 -.588E+03   0.473E+02 -.202E+02 0.588E+03   -.385E+00 0.114E+00 0.671E+00   0.583E-03 -.349E-03 0.428E-02
   -.452E+02 0.676E+02 -.589E+03   0.454E+02 -.681E+02 0.588E+03   -.259E+00 0.447E+00 0.847E+00   0.673E-03 -.118E-03 0.349E-02
   0.333E+02 0.123E+02 -.633E+03   -.335E+02 -.122E+02 0.633E+03   0.196E+00 -.628E-01 0.248E+00   -.681E-03 -.561E-03 0.277E-02
   0.252E+01 0.497E+01 0.219E+04   -.244E+01 -.487E+01 -.219E+04   -.224E+00 -.190E-02 -.269E+01   -.340E-04 0.103E-03 0.399E-03
   -.293E+02 0.289E+01 -.201E+04   0.298E+02 -.295E+01 0.200E+04   -.545E+00 0.746E-01 0.455E+01   -.865E-03 -.134E-02 0.137E-02
   0.868E+01 -.409E+02 -.197E+04   -.793E+01 0.399E+02 0.200E+04   -.753E+00 0.106E+01 -.260E+02   0.970E-03 -.842E-05 -.329E-04
   -.656E+01 -.962E+01 -.202E+04   0.476E+01 0.791E+01 0.204E+04   0.182E+01 0.173E+01 -.272E+02   -.609E-03 0.443E-03 -.127E-02
   -.464E+02 -.760E+01 -.203E+04   0.454E+02 0.763E+01 0.205E+04   0.972E+00 -.152E-01 -.266E+02   0.355E-04 0.288E-03 -.539E-03
   -.681E+01 0.314E+01 -.206E+04   0.613E+01 -.314E+01 0.208E+04   0.679E+00 0.266E-01 -.277E+02   0.277E-03 -.287E-03 -.481E-03
 -----------------------------------------------------------------------------------------------
   -.381E+01 -.460E+01 0.109E+03   -.266E-13 -.799E-12 0.273E-11   0.380E+01 0.460E+01 -.109E+03   -.265E-03 0.367E-03 0.134E+00
 
 
 POSITION                                       TOTAL-FORCE (eV/Angst)
 -----------------------------------------------------------------------------------
     10.08740      0.00562      4.04934         0.000771      0.007238     -0.270600
     -2.53339      8.73512      4.08190        -0.008881      0.091704     -0.084666
      5.03058      0.01686      4.07661        -0.043849     -0.076497     -0.170006
      8.81557      2.19268      4.07950         0.031438     -0.001614     -0.173882
      1.26036      2.17683      4.06343        -0.079491     -0.120820     -0.154137
      2.54307      1.43124      6.11194         0.001840     -0.000249     -0.014913
      6.28789      2.21111      4.10570         0.069522      0.002046     -0.289572
      3.80181      0.73423      2.00037         0.102804      0.042729      0.438179
      3.77489      0.73793      8.14491         0.002372      0.017071      0.005715
      7.57542      1.47022      6.16924         0.002933     -0.004482     -0.004244
      6.31884      0.74108      2.03384        -0.003281     -0.081631      0.464720
      6.30085      0.75085      8.18409        -0.010019     -0.015156      0.026494
      7.57051      4.36576      4.10283        -0.009882      0.042414     -0.384648
      5.03817      4.36229      4.08171        -0.024430     -0.042498     -0.203164
      3.79202      3.62673      6.09183        -0.014794     -0.007868     -0.015312
      2.55462      2.91604      2.00083         0.077268      0.089003      0.421045
      2.49834      2.88940      8.12507        -0.013835      0.022829     -0.007703
      6.28239      3.62212      6.12029         0.017219     -0.007332     -0.002630
      7.58585      2.93043      2.03371         0.123155      0.046521      0.471896
      7.53080      2.89326      8.18769         0.000173      0.004935      0.000866
      6.29425      6.55133      4.09263         0.023603     -0.018415     -0.222920
     -2.53998      5.80243      6.10311        -0.014240      0.017757      0.003148
      3.81389      6.57546      4.07284        -0.069006      0.000326     -0.097510
      1.26871      5.10416      2.04534        -0.064615      0.128385      0.297046
      1.20777      5.06933      8.18380         0.017210     -0.000527      0.021434
      6.29450      5.11374      2.02823        -0.021446      0.076283      0.406990
      6.23323      5.13023      8.18929        -0.025861      0.003556     -0.003808
     -2.53139      7.30304      2.00991         0.009928     -0.126373      0.294376
     -2.56226      7.31089      8.03447        -0.010911     -0.006705     -0.021489
      0.00464      7.28975      2.05722         0.070823      0.056904      0.332872
     -0.02040      7.27838      8.19996         0.009448      0.027671      0.012220
      5.08583      7.28318      2.02757        -0.139025      0.084398      0.411958
      5.03718      7.25268      8.17786         0.005250     -0.005854      0.002152
      7.54405      0.03969      4.10439         0.015750      0.002508     -0.390824
     -0.00382      1.43925      6.04526         0.010795     -0.004933     -0.029836
      3.74186      2.14689      4.07389        -0.102362     -0.023566     -0.497245
      1.31001      0.72945      2.02674         0.000660     -0.009107      0.240718
      1.32076      0.75319      8.15155         0.035491      0.004374      0.011612
      5.09135      1.45296      6.08563         0.019465     -0.003408     -0.024650
      8.82791      0.75063      2.00000         0.006084     -0.068842      0.159888
      8.74866      0.73103      8.19274        -0.007835      0.036291      0.006400
     -0.02406      4.34464      4.11684         0.039977      0.078594     -0.301693
     -1.33759      3.66125      6.10687        -0.000742     -0.030538     -0.018592
      2.55702      4.37025      4.05869        -0.079489      0.011545     -0.315912
      1.29224      3.63461      6.08906         0.014068     -0.014213     -0.016899
      0.02215      2.94990      2.02984         0.015632     -0.143283      0.020627
     -0.05299      2.89431      8.04716         0.023592      0.017361     -0.043560
      5.09719      2.93887      2.04043        -0.037159     -0.236650      0.007852
      5.01809      2.95153      8.08544        -0.016135      0.012508      0.008720
     -1.32764      6.58396      4.11125        -0.003586     -0.142070     -0.268817
      1.24700      6.55932      4.09363        -0.046658     -0.076868     -0.273122
      0.01700      5.82927      6.17294         0.003525      0.010799      0.026316
     -1.29718      5.12819      2.06865         0.084653      0.107506      0.198563
     -1.26891      5.16333      8.15894         0.000274      0.026864      0.019867
      2.48332      5.81441      6.12823         0.027886      0.019851     -0.004237
      5.04527      5.75843      6.12201         0.007077      0.009178      0.022544
      3.79261      5.11061      2.02334         0.062333      0.026726     -0.028398
      3.76876      5.13902      8.23476         0.018723     -0.015910     -0.017737
     -3.78584      7.98318      6.06282         0.001061     -0.024256     -0.015199
     -1.23618      7.97152      6.12854        -0.041391      0.031860      0.020546
      1.25004      8.00896      6.13720         0.028594     -0.016130      0.021278
      3.79031      7.99479      6.10792        -0.006609     -0.006715     -0.002871
      2.54183      7.29082      2.05307        -0.124624      0.103540     -0.003976
      2.49917      7.26299      8.12337         0.012218      0.005337     -0.004045
     -0.00003      0.07547      9.26324         0.006971      0.009529      0.017239
      2.53527      4.34579      9.32047         0.015859      0.018584     -0.004758
     -2.51395      4.39873      9.27570         0.000464      0.013187      0.029794
      5.03113      0.02185      9.31619         0.003244      0.024597     -0.039499
 -----------------------------------------------------------------------------------
    total drift:                               -0.002544     -0.004717      0.011766


--------------------------------------------------------------------------------------------------------



  FREE ENERGIE OF THE ION-ELECTRON SYSTEM (eV)
  ---------------------------------------------------
  free  energy   TOTEN  =      -460.03199621 eV

  energy  without entropy=     -460.03199621  energy(sigma->0) =     -460.03199621
 


--------------------------------------------------------------------------------------------------------


    POTLOK:  cpu time    0.5322: real time    0.5324


--------------------------------------------------------------------------------------------------------


 stress matrix after NEB project (eV)
    -31.67477     -1.73682      0.09352
     -1.73682    -33.95921      0.64258
      0.09352      0.64258     -8.96868
  FORCES: max atom, RMS     0.056129    0.021635
  FORCE total and by dimension    0.178408    0.043560
  Stress total and by dimension   47.369112   33.959213
 writing wavefunctions
     LOOP+:  cpu time 1479.7819: real time 1544.9177
    4ORBIT:  cpu time    0.0000: real time    0.0000
 


 total charge     
 
# of ion       s       p       d       tot
------------------------------------------
    1        0.507   0.510   8.316   9.334
    2        0.504   0.508   8.331   9.342
    3        0.507   0.512   8.321   9.340
    4        0.505   0.510   8.317   9.333
    5        0.511   0.518   8.325   9.354
    6        0.515   0.523   8.320   9.358
    7        0.502   0.500   8.322   9.324
    8        0.488   0.369   8.312   9.170
    9        0.501   0.507   8.326   9.334
   10        0.517   0.521   8.335   9.373
   11        0.492   0.377   8.311   9.179
   12        0.509   0.512   8.334   9.355
   13        0.503   0.504   8.318   9.325
   14        0.506   0.511   8.318   9.334
   15        0.517   0.534   8.321   9.373
   16        0.499   0.393   8.311   9.203
   17        0.498   0.503   8.335   9.337
   18        0.509   0.514   8.339   9.362
   19        0.493   0.381   8.318   9.192
   20        0.499   0.500   8.342   9.340
   21        0.497   0.497   8.318   9.312
   22        0.517   0.525   8.335   9.377
   23        0.507   0.517   8.312   9.336
   24        0.505   0.399   8.308   9.212
   25        0.502   0.506   8.326   9.334
   26        0.493   0.378   8.318   9.188
   27        0.493   0.491   8.330   9.314
   28        0.497   0.368   8.317   9.181
   29        0.493   0.387   8.365   9.246
   30        0.489   0.376   8.311   9.177
   31        0.505   0.508   8.324   9.337
   32        0.496   0.391   8.299   9.185
   33        0.492   0.487   8.335   9.314
   34        0.467   0.498   6.190   7.155
   35        0.473   0.510   6.201   7.185
   36        0.470   0.501   6.176   7.147
   37        0.465   0.389   6.111   6.965
   38        0.473   0.504   6.176   7.154
   39        0.476   0.512   6.194   7.182
   40        0.462   0.382   6.130   6.973
   41        0.475   0.503   6.210   7.188
   42        0.476   0.514   6.217   7.207
   43        0.484   0.519   6.204   7.206
   44        0.474   0.507   6.203   7.183
   45        0.482   0.511   6.218   7.211
   46        0.469   0.385   6.141   6.996
   47        0.463   0.393   6.195   7.050
   48        0.468   0.390   6.108   6.966
   49        0.455   0.387   6.153   6.995
   50        0.472   0.505   6.194   7.171
   51        0.474   0.507   6.197   7.178
   52        0.488   0.534   6.289   7.310
   53        0.464   0.388   6.132   6.984
   54        0.480   0.521   6.177   7.178
   55        0.484   0.522   6.244   7.250
   56        0.476   0.508   6.177   7.162
   57        0.468   0.390   6.141   7.000
   58        0.480   0.514   6.221   7.214
   59        0.475   0.507   6.195   7.177
   60        0.481   0.512   6.198   7.191
   61        0.487   0.522   6.233   7.242
   62        0.475   0.512   6.208   7.195
   63        0.472   0.385   6.145   7.002
   64        0.462   0.393   6.190   7.045
   65        1.579   3.368   0.000   4.947
   66        1.581   3.345   0.000   4.926
   67        1.580   3.353   0.000   4.933
   68        1.581   3.331   0.000   4.912
--------------------------------------------------
tot         37.558  43.557 466.438 547.553
 


 magnetization (x)
 
# of ion       s       p       d       tot
------------------------------------------
    1       -0.019  -0.051   0.790   0.720
    2       -0.020  -0.042   0.685   0.624
    3       -0.024  -0.045   0.778   0.708
    4       -0.021  -0.046   0.736   0.668
    5       -0.026  -0.053   0.716   0.637
    6       -0.019  -0.047   0.680   0.613
    7       -0.017  -0.039   0.720   0.664
    8       -0.022  -0.032   0.691   0.637
    9       -0.015  -0.024   0.616   0.577
   10       -0.020  -0.044   0.616   0.552
   11       -0.021  -0.032   0.717   0.665
   12       -0.018  -0.019   0.567   0.529
   13       -0.018  -0.037   0.782   0.727
   14       -0.019  -0.046   0.747   0.682
   15       -0.029  -0.060   0.763   0.675
   16       -0.030  -0.049   0.724   0.645
   17       -0.015  -0.025   0.592   0.552
   18       -0.019  -0.037   0.695   0.640
   19       -0.021  -0.034   0.683   0.627
   20       -0.014  -0.019   0.537   0.505
   21       -0.014  -0.034   0.715   0.667
   22       -0.019  -0.043   0.644   0.581
   23       -0.026  -0.057   0.755   0.672
   24       -0.031  -0.046   0.743   0.667
   25       -0.013  -0.016   0.543   0.514
   26       -0.020  -0.031   0.677   0.626
   27       -0.015  -0.025   0.521   0.481
   28       -0.015  -0.028   0.697   0.654
   29       -0.025  -0.015   0.795   0.754
   30       -0.022  -0.033   0.703   0.649
   31       -0.011  -0.012   0.573   0.550
   32       -0.023  -0.041   0.746   0.681
   33       -0.019  -0.030   0.562   0.513
   34       -0.002  -0.028   2.672   2.643
   35       -0.009  -0.039   2.683   2.636
   36        0.004  -0.018   2.746   2.733
   37        0.009  -0.009   2.898   2.898
   38        0.010   0.001   2.699   2.709
   39       -0.001  -0.021   2.706   2.684
   40        0.005  -0.014   2.852   2.843
   41        0.010   0.003   2.582   2.594
   42       -0.007  -0.035   2.540   2.498
   43       -0.002  -0.027   2.616   2.587
   44       -0.004  -0.025   2.709   2.680
   45       -0.001  -0.024   2.558   2.532
   46        0.009  -0.019   2.832   2.822
   47       -0.007  -0.006   2.880   2.868
   48        0.016  -0.010   2.916   2.922
   49        0.011   0.001   2.972   2.984
   50        0.002  -0.018   2.638   2.622
   51       -0.003  -0.027   2.612   2.582
   52       -0.031  -0.057  -0.561  -0.649
   53        0.006  -0.009   2.847   2.845
   54        0.015   0.015   2.616   2.646
   55       -0.009  -0.038   2.397   2.349
   56        0.005  -0.020   2.675   2.661
   57        0.006  -0.010   2.839   2.836
   58        0.006   0.000   2.492   2.498
   59       -0.004  -0.022   2.705   2.679
   60        0.005  -0.014   2.630   2.621
   61       -0.006  -0.032   2.490   2.452
   62       -0.011  -0.038   2.639   2.590
   63        0.007  -0.014   2.826   2.818
   64       -0.002  -0.003   2.888   2.883
   65        0.004   0.103   0.000   0.106
   66        0.003   0.091   0.000   0.094
   67        0.003   0.096   0.000   0.098
   68        0.002   0.104   0.000   0.107
--------------------------------------------------
tot         -0.622  -1.355 103.101 101.124
 
 BZINTS: Fermi energy: -0.027998;602.000000 electrons
         Band energy:***********;  BLOECHL correction: -0.028458

 total amount of memory used by VASP MPI-rank0   143259. kBytes
=======================================================================

   base      :      30000. kBytes
   nonlr-proj:      13635. kBytes
   fftplans  :       8122. kBytes
   grid      :      22220. kBytes
   one-center:         93. kBytes
   wavefun   :      69189. kBytes
 
  
  
 General timing and accounting informations for this job:
 ========================================================
  
                  Total CPU time used (sec):     1651.164
                            User time (sec):     1458.479
                          System time (sec):      192.685
                         Elapsed time (sec):     1723.311
  
                   Maximum memory used (kb):      379204.
                   Average memory used (kb):           0.
  
                          Minor page faults:     28370062
                          Major page faults:            9
                 Voluntary context switches:         5913
