SQS-NiFe                                
           1
    10.100310    0.000000    0.000000
    -5.050155    8.747125    0.000000
     0.000000    0.000000   21.253800
   Ni   Fe   O 
  33  31   4
Direct configuration=     1
   0.99904300  0.00064200  0.19052300
   0.24849100  0.99862800  0.19205500
   0.49902500  0.00192700  0.19180600
   0.99813900  0.25067400  0.19194200
   0.24921500  0.24886200  0.19118600
   0.33359345  0.16362379  0.28756926
   0.74893500  0.25278100  0.19317500
   0.41837500  0.08394000  0.09411800
   0.41592131  0.08436259  0.38322126
   0.83405898  0.16807991  0.29026508
   0.66797000  0.08472300  0.09569300
   0.66674705  0.08583981  0.38506474
   0.99908600  0.49910800  0.19304000
   0.74816900  0.49871100  0.19204600
   0.58274622  0.41461973  0.28662330
   0.41961000  0.33337100  0.09414000
   0.41251540  0.33032575  0.38228783
   0.82904613  0.41409277  0.28796231
   0.91855900  0.33501600  0.09568700
   0.91098470  0.33076744  0.38523403
   0.99765800  0.74896900  0.19256000
   0.08020058  0.66335225  0.28715386
   0.75346500  0.75172800  0.19162900
   0.41737300  0.58352400  0.09623400
   0.40934856  0.57954203  0.38505099
   0.91550800  0.58461900  0.09542900
   0.91038477  0.58650452  0.38530933
   0.16682900  0.83490800  0.09456700
   0.16422081  0.83580495  0.37802504
   0.41715300  0.83338800  0.09679300
   0.41402470  0.83208811  0.38581158
   0.91985100  0.83263700  0.09539800
   0.91329103  0.82915062  0.38477159
   0.74918200  0.00453800  0.19311300
   0.08189193  0.16453940  0.28443200
   0.49319000  0.24544000  0.19167800
   0.17139600  0.08339300  0.09535900
   0.17381778  0.08610749  0.38353373
   0.58713170  0.16610686  0.28633155
   0.91693100  0.08581500  0.09410100
   0.90796414  0.08357329  0.38547197
   0.24596400  0.49669300  0.19369900
   0.07685239  0.41856641  0.28733087
   0.50297300  0.49962100  0.19096300
   0.33570118  0.41552098  0.28649290
   0.17081400  0.33724200  0.09550500
   0.16019717  0.33088681  0.37862207
   0.67264700  0.33598100  0.09600300
   0.66553897  0.33742817  0.38042340
   0.24490500  0.75270000  0.19343600
   0.49840300  0.74988300  0.19260700
   0.33489395  0.66642098  0.29043945
   0.16470600  0.58627100  0.09733100
   0.16951332  0.59028898  0.38388139
   0.57822675  0.66472196  0.28833561
   0.82867807  0.65832301  0.28804318
   0.66762500  0.58426200  0.09519900
   0.66688827  0.58750981  0.38744904
   0.08150806  0.91266343  0.28525812
   0.33327520  0.91133051  0.28835019
   0.58156818  0.91561099  0.28875777
   0.83226167  0.91399090  0.28738013
   0.66841400  0.83351100  0.09659800
   0.66259940  0.83032860  0.38220766
   0.00431087  0.00862833  0.43583937
   0.49942193  0.49682507  0.43853203
   0.00253998  0.50287742  0.43642531
   0.49936569  0.00249764  0.43833054
