  69  69   1   0
  0.2839954E+02  0.9929500E-09  0.9929500E-09  0.2108055E-08  0.5000000E-15
  1.000000000000000E-004
  CAR 
 SQS-NiFe                                
      3.87517132    -22.12887417  301     -0.62571387      1.00000000
    -22.129  0.0000E+00  0.0000E+00  0.0000E+00  0.0000E+00
    -22.042  0.0000E+00  0.0000E+00  0.0000E+00  0.0000E+00
    -21.956  0.0000E+00  0.0000E+00  0.0000E+00  0.0000E+00
    -21.869  0.0000E+00  0.0000E+00  0.0000E+00  0.0000E+00
    -21.782  0.0000E+00 -0.5509E-30  0.0000E+00 -0.4775E-31
    -21.695 -0.1861E-29 -0.5603E-27 -0.1613E-30 -0.4861E-28
    -21.609 -0.1773E-26 -0.3904E-24 -0.1538E-27 -0.3389E-25
    -21.522 -0.1157E-23 -0.1861E-21 -0.1005E-24 -0.1617E-22
    -21.435 -0.5170E-21 -0.6071E-19 -0.4491E-22 -0.5278E-20
    -21.349 -0.1579E-18 -0.1353E-16 -0.1374E-19 -0.1178E-17
    -21.262 -0.3298E-16 -0.1995E-14 -0.2872E-17 -0.1741E-15
    -21.175 -0.4552E-14 -0.2063E-12 -0.3974E-15 -0.1805E-13
    -21.089 -0.4402E-12 -0.1449E-10 -0.3855E-13 -0.1274E-11
    -21.002 -0.2894E-10 -0.6908E-09 -0.2547E-11 -0.6115E-10
    -20.915 -0.1290E-08 -0.2226E-07 -0.1144E-09 -0.1991E-08
    -20.829 -0.3884E-07 -0.4823E-06 -0.3481E-08 -0.4380E-07
    -20.742 -0.7857E-06 -0.6972E-05 -0.7159E-07 -0.6481E-06
    -20.655 -0.1059E-04 -0.6632E-04 -0.9893E-06 -0.6397E-05
    -20.569 -0.9376E-04 -0.4051E-03 -0.9116E-05 -0.4151E-04
    -20.482 -0.5326E-03 -0.1505E-02 -0.5529E-04 -0.1720E-03
    -20.395 -0.1845E-02 -0.2860E-02 -0.2152E-03 -0.4199E-03
    -20.309 -0.3327E-02  0.1684E-03 -0.5035E-03 -0.4053E-03
    -20.222 -0.1702E-03  0.1484E-01 -0.5183E-03  0.8814E-03
    -20.135  0.1523E-01  0.4045E-01  0.8016E-03  0.4388E-02
    -20.049  0.4813E-01  0.6680E-01  0.4974E-02  0.1018E-01
    -19.962  0.9954E-01  0.8830E-01  0.1360E-01  0.1783E-01
    -19.875  0.1509E+00  0.1051E+00  0.2669E-01  0.2694E-01
    -19.789  0.1565E+00  0.1110E+00  0.4025E-01  0.3656E-01
    -19.702  0.1002E+00  0.9436E-01  0.4894E-01  0.4474E-01
    -19.615  0.3142E-01  0.5615E-01  0.5167E-01  0.4961E-01
    -19.528 -0.2849E-02  0.1791E-01  0.5142E-01  0.5116E-01
    -19.442 -0.6828E-02 -0.1253E-02  0.5083E-01  0.5105E-01
    -19.355 -0.2920E-02 -0.3951E-02  0.5057E-01  0.5071E-01
    -19.268 -0.6819E-03 -0.1821E-02  0.5051E-01  0.5055E-01
    -19.182 -0.9953E-04 -0.4543E-03  0.5051E-01  0.5051E-01
    -19.095 -0.9499E-05 -0.7053E-04  0.5051E-01  0.5051E-01
    -19.008 -0.6047E-06 -0.7127E-05  0.5051E-01  0.5051E-01
    -18.922 -0.2595E-07 -0.4785E-06  0.5051E-01  0.5051E-01
    -18.835 -0.7553E-09 -0.2156E-07  0.5051E-01  0.5051E-01
    -18.748 -0.1496E-10 -0.6564E-09  0.5051E-01  0.5051E-01
    -18.662 -0.2022E-12 -0.1355E-10  0.5051E-01  0.5051E-01
    -18.575 -0.1886E-14 -0.1903E-12  0.5051E-01  0.5051E-01
    -18.488  0.0000E+00 -0.1849E-14  0.5051E-01  0.5051E-01
    -18.402  0.0000E+00  0.0000E+00  0.5051E-01  0.5051E-01
    -18.315  0.0000E+00  0.0000E+00  0.5051E-01  0.5051E-01
    -18.228  0.0000E+00  0.0000E+00  0.5051E-01  0.5051E-01
    -18.142  0.0000E+00  0.0000E+00  0.5051E-01  0.5051E-01
    -18.055  0.0000E+00  0.0000E+00  0.5051E-01  0.5051E-01
    -17.968  0.0000E+00  0.0000E+00  0.5051E-01  0.5051E-01
    -17.882  0.0000E+00  0.0000E+00  0.5051E-01  0.5051E-01
    -17.795  0.0000E+00  0.0000E+00  0.5051E-01  0.5051E-01
    -17.708  0.0000E+00  0.0000E+00  0.5051E-01  0.5051E-01
    -17.622  0.0000E+00  0.0000E+00  0.5051E-01  0.5051E-01
    -17.535  0.0000E+00  0.0000E+00  0.5051E-01  0.5051E-01
    -17.448  0.0000E+00  0.0000E+00  0.5051E-01  0.5051E-01
    -17.361  0.0000E+00  0.0000E+00  0.5051E-01  0.5051E-01
    -17.275  0.0000E+00  0.0000E+00  0.5051E-01  0.5051E-01
    -17.188  0.0000E+00  0.0000E+00  0.5051E-01  0.5051E-01
    -17.101  0.0000E+00  0.0000E+00  0.5051E-01  0.5051E-01
    -17.015  0.0000E+00  0.0000E+00  0.5051E-01  0.5051E-01
    -16.928  0.0000E+00  0.0000E+00  0.5051E-01  0.5051E-01
    -16.841  0.0000E+00  0.0000E+00  0.5051E-01  0.5051E-01
    -16.755  0.0000E+00  0.0000E+00  0.5051E-01  0.5051E-01
    -16.668  0.0000E+00  0.0000E+00  0.5051E-01  0.5051E-01
    -16.581  0.0000E+00  0.0000E+00  0.5051E-01  0.5051E-01
    -16.495  0.0000E+00  0.0000E+00  0.5051E-01  0.5051E-01
    -16.408  0.0000E+00  0.0000E+00  0.5051E-01  0.5051E-01
    -16.321  0.0000E+00  0.0000E+00  0.5051E-01  0.5051E-01
    -16.235  0.0000E+00  0.0000E+00  0.5051E-01  0.5051E-01
    -16.148  0.0000E+00  0.0000E+00  0.5051E-01  0.5051E-01
    -16.061  0.0000E+00  0.0000E+00  0.5051E-01  0.5051E-01
    -15.975  0.0000E+00  0.0000E+00  0.5051E-01  0.5051E-01
    -15.888  0.0000E+00  0.0000E+00  0.5051E-01  0.5051E-01
    -15.801  0.0000E+00  0.0000E+00  0.5051E-01  0.5051E-01
    -15.715  0.0000E+00  0.0000E+00  0.5051E-01  0.5051E-01
    -15.628  0.0000E+00  0.0000E+00  0.5051E-01  0.5051E-01
    -15.541  0.0000E+00  0.0000E+00  0.5051E-01  0.5051E-01
    -15.455  0.0000E+00  0.0000E+00  0.5051E-01  0.5051E-01
    -15.368  0.0000E+00  0.0000E+00  0.5051E-01  0.5051E-01
    -15.281  0.0000E+00  0.0000E+00  0.5051E-01  0.5051E-01
    -15.194  0.0000E+00  0.0000E+00  0.5051E-01  0.5051E-01
    -15.108  0.0000E+00  0.0000E+00  0.5051E-01  0.5051E-01
    -15.021  0.0000E+00  0.0000E+00  0.5051E-01  0.5051E-01
    -14.934  0.0000E+00  0.0000E+00  0.5051E-01  0.5051E-01
    -14.848  0.0000E+00  0.0000E+00  0.5051E-01  0.5051E-01
    -14.761  0.0000E+00  0.0000E+00  0.5051E-01  0.5051E-01
    -14.674  0.0000E+00  0.0000E+00  0.5051E-01  0.5051E-01
    -14.588  0.0000E+00  0.0000E+00  0.5051E-01  0.5051E-01
    -14.501  0.0000E+00  0.0000E+00  0.5051E-01  0.5051E-01
    -14.414  0.0000E+00  0.0000E+00  0.5051E-01  0.5051E-01
    -14.328  0.0000E+00  0.0000E+00  0.5051E-01  0.5051E-01
    -14.241  0.0000E+00  0.0000E+00  0.5051E-01  0.5051E-01
    -14.154  0.0000E+00  0.0000E+00  0.5051E-01  0.5051E-01
    -14.068  0.0000E+00  0.0000E+00  0.5051E-01  0.5051E-01
    -13.981  0.0000E+00  0.0000E+00  0.5051E-01  0.5051E-01
    -13.894  0.0000E+00  0.0000E+00  0.5051E-01  0.5051E-01
    -13.808  0.0000E+00  0.0000E+00  0.5051E-01  0.5051E-01
    -13.721  0.0000E+00  0.0000E+00  0.5051E-01  0.5051E-01
    -13.634  0.0000E+00  0.0000E+00  0.5051E-01  0.5051E-01
    -13.548  0.0000E+00  0.0000E+00  0.5051E-01  0.5051E-01
    -13.461  0.0000E+00  0.0000E+00  0.5051E-01  0.5051E-01
    -13.374  0.0000E+00  0.0000E+00  0.5051E-01  0.5051E-01
    -13.287  0.0000E+00  0.0000E+00  0.5051E-01  0.5051E-01
    -13.201  0.0000E+00  0.0000E+00  0.5051E-01  0.5051E-01
    -13.114  0.0000E+00  0.0000E+00  0.5051E-01  0.5051E-01
    -13.027  0.0000E+00  0.0000E+00  0.5051E-01  0.5051E-01
    -12.941  0.0000E+00  0.0000E+00  0.5051E-01  0.5051E-01
    -12.854  0.0000E+00  0.0000E+00  0.5051E-01  0.5051E-01
    -12.767  0.0000E+00  0.0000E+00  0.5051E-01  0.5051E-01
    -12.681  0.0000E+00  0.0000E+00  0.5051E-01  0.5051E-01
    -12.594  0.0000E+00  0.0000E+00  0.5051E-01  0.5051E-01
    -12.507  0.0000E+00  0.0000E+00  0.5051E-01  0.5051E-01
    -12.421  0.0000E+00  0.0000E+00  0.5051E-01  0.5051E-01
    -12.334  0.0000E+00  0.0000E+00  0.5051E-01  0.5051E-01
    -12.247  0.0000E+00  0.0000E+00  0.5051E-01  0.5051E-01
    -12.161  0.0000E+00  0.0000E+00  0.5051E-01  0.5051E-01
    -12.074  0.0000E+00  0.0000E+00  0.5051E-01  0.5051E-01
    -11.987  0.0000E+00  0.0000E+00  0.5051E-01  0.5051E-01
    -11.901  0.0000E+00  0.0000E+00  0.5051E-01  0.5051E-01
    -11.814  0.0000E+00  0.0000E+00  0.5051E-01  0.5051E-01
    -11.727  0.0000E+00  0.0000E+00  0.5051E-01  0.5051E-01
    -11.641  0.0000E+00  0.0000E+00  0.5051E-01  0.5051E-01
    -11.554  0.0000E+00  0.0000E+00  0.5051E-01  0.5051E-01
    -11.467  0.0000E+00  0.0000E+00  0.5051E-01  0.5051E-01
    -11.381  0.0000E+00  0.0000E+00  0.5051E-01  0.5051E-01
    -11.294  0.0000E+00  0.0000E+00  0.5051E-01  0.5051E-01
    -11.207  0.0000E+00  0.0000E+00  0.5051E-01  0.5051E-01
    -11.120  0.0000E+00  0.0000E+00  0.5051E-01  0.5051E-01
    -11.034  0.0000E+00  0.0000E+00  0.5051E-01  0.5051E-01
    -10.947  0.0000E+00  0.0000E+00  0.5051E-01  0.5051E-01
    -10.860  0.0000E+00  0.0000E+00  0.5051E-01  0.5051E-01
    -10.774  0.0000E+00  0.0000E+00  0.5051E-01  0.5051E-01
    -10.687  0.0000E+00  0.0000E+00  0.5051E-01  0.5051E-01
    -10.600  0.0000E+00  0.0000E+00  0.5051E-01  0.5051E-01
    -10.514  0.0000E+00  0.0000E+00  0.5051E-01  0.5051E-01
    -10.427  0.0000E+00  0.0000E+00  0.5051E-01  0.5051E-01
    -10.340  0.0000E+00  0.0000E+00  0.5051E-01  0.5051E-01
    -10.254 -0.4647E-32  0.0000E+00  0.5051E-01  0.5051E-01
    -10.167 -0.5414E-29  0.0000E+00  0.5051E-01  0.5051E-01
    -10.080 -0.4322E-26  0.0000E+00  0.5051E-01  0.5051E-01
     -9.994 -0.2362E-23 -0.2872E-29  0.5051E-01  0.5051E-01
     -9.907 -0.8827E-21 -0.2372E-26  0.5051E-01  0.5051E-01
     -9.820 -0.2256E-18 -0.1342E-23  0.5051E-01  0.5051E-01
     -9.734 -0.3794E-16 -0.5196E-21  0.5051E-01  0.5051E-01
     -9.647 -0.4533E-14 -0.1375E-18  0.5051E-01  0.5051E-01
     -9.560 -0.3658E-12 -0.2415E-16  0.5051E-01  0.5051E-01
     -9.474 -0.2004E-10 -0.2966E-14  0.5051E-01  0.5051E-01
     -9.387 -0.7432E-09 -0.2480E-12  0.5051E-01  0.5051E-01
     -9.300 -0.1857E-07 -0.1408E-10  0.5051E-01  0.5051E-01
     -9.214 -0.3104E-06 -0.5416E-09  0.5051E-01  0.5051E-01
     -9.127 -0.3435E-05 -0.1404E-07  0.5050E-01  0.5051E-01
     -9.040 -0.2473E-04 -0.2436E-06  0.5050E-01  0.5051E-01
     -8.953 -0.1124E-03 -0.2802E-05  0.5049E-01  0.5050E-01
     -8.867 -0.3016E-03 -0.2101E-04  0.5047E-01  0.5050E-01
     -8.780 -0.3801E-03 -0.9986E-04  0.5043E-01  0.5049E-01
     -8.693  0.2548E-03 -0.2832E-03  0.5046E-01  0.5047E-01
     -8.607  0.2461E-02 -0.3950E-03  0.5067E-01  0.5044E-01
     -8.520  0.7905E-02  0.1386E-03  0.5135E-01  0.5045E-01
     -8.433  0.1760E-01  0.2158E-02  0.5288E-01  0.5063E-01
     -8.347  0.2586E-01  0.7265E-02  0.5512E-01  0.5126E-01
     -8.260  0.2379E-01  0.1673E-01  0.5718E-01  0.5271E-01
     -8.173  0.1414E-01  0.2554E-01  0.5841E-01  0.5493E-01
     -8.087  0.9078E-02  0.2445E-01  0.5920E-01  0.5705E-01
     -8.000  0.1470E-01  0.1499E-01  0.6047E-01  0.5835E-01
     -7.913  0.2742E-01  0.9180E-02  0.6285E-01  0.5914E-01
     -7.827  0.3581E-01  0.1374E-01  0.6595E-01  0.6033E-01
     -7.740  0.3028E-01  0.2589E-01  0.6857E-01  0.6258E-01
     -7.653  0.1825E-01  0.3532E-01  0.7016E-01  0.6564E-01
     -7.567  0.1364E-01  0.3173E-01  0.7134E-01  0.6839E-01
     -7.480  0.1686E-01  0.1977E-01  0.7280E-01  0.7010E-01
     -7.393  0.2193E-01  0.1297E-01  0.7470E-01  0.7123E-01
     -7.307  0.3203E-01  0.1524E-01  0.7748E-01  0.7255E-01
     -7.220  0.5162E-01  0.2422E-01  0.8195E-01  0.7465E-01
     -7.133  0.7074E-01  0.4400E-01  0.8808E-01  0.7846E-01
     -7.047  0.8075E-01  0.7798E-01  0.9508E-01  0.8522E-01
     -6.960  0.9328E-01  0.1083E+00  0.1032E+00  0.9460E-01
     -6.873  0.1154E+00  0.1090E+00  0.1132E+00  0.1041E+00
     -6.786  0.1303E+00  0.8971E-01  0.1245E+00  0.1118E+00
     -6.700  0.1283E+00  0.8465E-01  0.1356E+00  0.1192E+00
     -6.613  0.1296E+00  0.9957E-01  0.1468E+00  0.1278E+00
     -6.526  0.1524E+00  0.1120E+00  0.1600E+00  0.1375E+00
     -6.440  0.1841E+00  0.1138E+00  0.1760E+00  0.1474E+00
     -6.353  0.1994E+00  0.1197E+00  0.1933E+00  0.1577E+00
     -6.266  0.1896E+00  0.1394E+00  0.2097E+00  0.1698E+00
     -6.180  0.1703E+00  0.1628E+00  0.2245E+00  0.1839E+00
     -6.093  0.1614E+00  0.1747E+00  0.2385E+00  0.1991E+00
     -6.006  0.1577E+00  0.1717E+00  0.2521E+00  0.2140E+00
     -5.920  0.1417E+00  0.1564E+00  0.2644E+00  0.2275E+00
     -5.833  0.1200E+00  0.1291E+00  0.2748E+00  0.2387E+00
     -5.746  0.1150E+00  0.1002E+00  0.2848E+00  0.2474E+00
     -5.660  0.1257E+00  0.8832E-01  0.2957E+00  0.2551E+00
     -5.573  0.1328E+00  0.9547E-01  0.3072E+00  0.2633E+00
     -5.486  0.1359E+00  0.1071E+00  0.3190E+00  0.2726E+00
     -5.400  0.1631E+00  0.1124E+00  0.3331E+00  0.2824E+00
     -5.313  0.2356E+00  0.1067E+00  0.3535E+00  0.2916E+00
     -5.226  0.3281E+00  0.9013E-01  0.3820E+00  0.2994E+00
     -5.140  0.3877E+00  0.7577E-01  0.4156E+00  0.3060E+00
     -5.053  0.3964E+00  0.7481E-01  0.4499E+00  0.3125E+00
     -4.966  0.3840E+00  0.8144E-01  0.4832E+00  0.3195E+00
     -4.880  0.3815E+00  0.8572E-01  0.5163E+00  0.3270E+00
     -4.793  0.4075E+00  0.9018E-01  0.5516E+00  0.3348E+00
     -4.706  0.4678E+00  0.1037E+00  0.5922E+00  0.3438E+00
     -4.619  0.5239E+00  0.1273E+00  0.6376E+00  0.3548E+00
     -4.533  0.5269E+00  0.1533E+00  0.6832E+00  0.3681E+00
     -4.446  0.4873E+00  0.1727E+00  0.7255E+00  0.3831E+00
     -4.359  0.4477E+00  0.1824E+00  0.7643E+00  0.3989E+00
     -4.273  0.4241E+00  0.1878E+00  0.8011E+00  0.4151E+00
     -4.186  0.4247E+00  0.1933E+00  0.8379E+00  0.4319E+00
     -4.099  0.4787E+00  0.2002E+00  0.8794E+00  0.4492E+00
     -4.013  0.6023E+00  0.2122E+00  0.9316E+00  0.4676E+00
     -3.926  0.7503E+00  0.2319E+00  0.9966E+00  0.4877E+00
     -3.839  0.8491E+00  0.2513E+00  0.1070E+01  0.5095E+00
     -3.753  0.8732E+00  0.2546E+00  0.1146E+01  0.5316E+00
     -3.666  0.8439E+00  0.2419E+00  0.1219E+01  0.5526E+00
     -3.579  0.7847E+00  0.2373E+00  0.1287E+01  0.5731E+00
     -3.493  0.7308E+00  0.2595E+00  0.1350E+01  0.5956E+00
     -3.406  0.7269E+00  0.3008E+00  0.1413E+01  0.6217E+00
     -3.319  0.7647E+00  0.3429E+00  0.1480E+01  0.6514E+00
     -3.233  0.7875E+00  0.3774E+00  0.1548E+01  0.6841E+00
     -3.146  0.7741E+00  0.4031E+00  0.1615E+01  0.7191E+00
     -3.059  0.7440E+00  0.4156E+00  0.1680E+01  0.7551E+00
     -2.973  0.7028E+00  0.4109E+00  0.1740E+01  0.7907E+00
     -2.886  0.6465E+00  0.3948E+00  0.1796E+01  0.8249E+00
     -2.799  0.5802E+00  0.3789E+00  0.1847E+01  0.8578E+00
     -2.713  0.5128E+00  0.3675E+00  0.1891E+01  0.8896E+00
     -2.626  0.4638E+00  0.3553E+00  0.1931E+01  0.9204E+00
     -2.539  0.4548E+00  0.3388E+00  0.1971E+01  0.9498E+00
     -2.452  0.4900E+00  0.3280E+00  0.2013E+01  0.9782E+00
     -2.366  0.5622E+00  0.3453E+00  0.2062E+01  0.1008E+01
     -2.279  0.6571E+00  0.4025E+00  0.2119E+01  0.1043E+01
     -2.192  0.7520E+00  0.4861E+00  0.2184E+01  0.1085E+01
     -2.106  0.8499E+00  0.5730E+00  0.2258E+01  0.1135E+01
     -2.019  0.9832E+00  0.6503E+00  0.2343E+01  0.1191E+01
     -1.932  0.1151E+01  0.7132E+00  0.2443E+01  0.1253E+01
     -1.846  0.1298E+01  0.7451E+00  0.2555E+01  0.1318E+01
     -1.759  0.1372E+01  0.7296E+00  0.2674E+01  0.1381E+01
     -1.672  0.1346E+01  0.6913E+00  0.2791E+01  0.1441E+01
     -1.586  0.1202E+01  0.6759E+00  0.2895E+01  0.1499E+01
     -1.499  0.9625E+00  0.6864E+00  0.2979E+01  0.1559E+01
     -1.412  0.7282E+00  0.6844E+00  0.3042E+01  0.1618E+01
     -1.326  0.5949E+00  0.6496E+00  0.3093E+01  0.1675E+01
     -1.239  0.5671E+00  0.6071E+00  0.3142E+01  0.1727E+01
     -1.152  0.5802E+00  0.5899E+00  0.3193E+01  0.1778E+01
     -1.066  0.5772E+00  0.5919E+00  0.3243E+01  0.1830E+01
     -0.979  0.5424E+00  0.5800E+00  0.3290E+01  0.1880E+01
     -0.892  0.4886E+00  0.5438E+00  0.3332E+01  0.1927E+01
     -0.806  0.4295E+00  0.4986E+00  0.3369E+01  0.1970E+01
     -0.719  0.3683E+00  0.4469E+00  0.3401E+01  0.2009E+01
     -0.632  0.3105E+00  0.3867E+00  0.3428E+01  0.2042E+01
     -0.546  0.2690E+00  0.3387E+00  0.3451E+01  0.2072E+01
     -0.459  0.2480E+00  0.3241E+00  0.3473E+01  0.2100E+01
     -0.372  0.2417E+00  0.3339E+00  0.3494E+01  0.2129E+01
     -0.285  0.2473E+00  0.3407E+00  0.3515E+01  0.2158E+01
     -0.199  0.2580E+00  0.3323E+00  0.3538E+01  0.2187E+01
     -0.112  0.2557E+00  0.3240E+00  0.3560E+01  0.2215E+01
     -0.025  0.2329E+00  0.3391E+00  0.3580E+01  0.2245E+01
      0.061  0.2046E+00  0.3886E+00  0.3598E+01  0.2278E+01
      0.148  0.1781E+00  0.4594E+00  0.3613E+01  0.2318E+01
      0.235  0.1406E+00  0.5215E+00  0.3625E+01  0.2363E+01
      0.321  0.8840E-01  0.5596E+00  0.3633E+01  0.2412E+01
      0.408  0.3846E-01  0.5920E+00  0.3636E+01  0.2463E+01
      0.495  0.7537E-02  0.6462E+00  0.3637E+01  0.2519E+01
      0.581 -0.3176E-02  0.7246E+00  0.3637E+01  0.2582E+01
      0.668 -0.3267E-02  0.8078E+00  0.3637E+01  0.2652E+01
      0.755 -0.1346E-02  0.8831E+00  0.3636E+01  0.2729E+01
      0.841 -0.3344E-03  0.9416E+00  0.3636E+01  0.2810E+01
      0.928 -0.5414E-04  0.9725E+00  0.3636E+01  0.2894E+01
      1.015 -0.5870E-05  0.9859E+00  0.3636E+01  0.2980E+01
      1.101 -0.4312E-06  0.1011E+01  0.3636E+01  0.3068E+01
      1.188 -0.2159E-07  0.1060E+01  0.3636E+01  0.3159E+01
      1.275 -0.7392E-09  0.1101E+01  0.3636E+01  0.3255E+01
      1.361 -0.1735E-10  0.1075E+01  0.3636E+01  0.3348E+01
      1.448 -0.2793E-12  0.9570E+00  0.3636E+01  0.3431E+01
      1.535 -0.3085E-14  0.7888E+00  0.3636E+01  0.3499E+01
      1.621 -0.2588E-16  0.6259E+00  0.3636E+01  0.3554E+01
      1.708  0.0000E+00  0.4745E+00  0.3636E+01  0.3595E+01
      1.795  0.0000E+00  0.3128E+00  0.3636E+01  0.3622E+01
      1.882  0.0000E+00  0.1525E+00  0.3636E+01  0.3635E+01
      1.968  0.0000E+00  0.3946E-01  0.3636E+01  0.3639E+01
      2.055  0.0000E+00 -0.6940E-02  0.3636E+01  0.3638E+01
      2.142  0.0000E+00 -0.1152E-01  0.3636E+01  0.3637E+01
      2.228  0.0000E+00 -0.5432E-02  0.3636E+01  0.3637E+01
      2.315  0.0000E+00 -0.1524E-02  0.3636E+01  0.3636E+01
      2.402  0.0000E+00 -0.2834E-03  0.3636E+01  0.3636E+01
      2.488  0.0000E+00 -0.3606E-04  0.3636E+01  0.3636E+01
      2.575  0.0000E+00 -0.3168E-05  0.3636E+01  0.3636E+01
      2.662  0.0000E+00 -0.1925E-06  0.3636E+01  0.3636E+01
      2.748  0.0000E+00 -0.8080E-08  0.3636E+01  0.3636E+01
      2.835  0.0000E+00 -0.2337E-09  0.3636E+01  0.3636E+01
      2.922  0.0000E+00 -0.4650E-11  0.3636E+01  0.3636E+01
      3.008  0.0000E+00 -0.6355E-13  0.3636E+01  0.3636E+01
      3.095  0.0000E+00 -0.5980E-15  0.3636E+01  0.3636E+01
      3.182  0.0000E+00 -0.5750E-17  0.3636E+01  0.3636E+01
      3.268  0.0000E+00  0.0000E+00  0.3636E+01  0.3636E+01
      3.355  0.0000E+00  0.0000E+00  0.3636E+01  0.3636E+01
      3.442  0.0000E+00  0.0000E+00  0.3636E+01  0.3636E+01
      3.528  0.0000E+00  0.0000E+00  0.3636E+01  0.3636E+01
      3.615  0.0000E+00  0.0000E+00  0.3636E+01  0.3636E+01
      3.702  0.0000E+00  0.0000E+00  0.3636E+01  0.3636E+01
      3.788  0.0000E+00  0.0000E+00  0.3636E+01  0.3636E+01
      3.875  0.0000E+00  0.0000E+00  0.3636E+01  0.3636E+01
      3.87517132    -22.12887417  301     -0.62571387      1.00000000
    -22.129  0.0000E+00  0.0000E+00  0.0000E+00  0.0000E+00  0.0000E+00  0.0000E+00
    -22.042  0.0000E+00  0.0000E+00  0.0000E+00  0.0000E+00  0.0000E+00  0.0000E+00
    -21.956  0.0000E+00  0.0000E+00  0.0000E+00  0.0000E+00  0.0000E+00  0.0000E+00
    -21.869  0.0000E+00  0.0000E+00  0.0000E+00  0.0000E+00  0.0000E+00  0.0000E+00
    -21.782  0.0000E+00 -0.3790E-39  0.0000E+00 -0.2814E-39  0.0000E+00 -0.8195E-39
    -21.695 -0.2267E-38 -0.3853E-36 -0.1680E-38 -0.2861E-36 -0.2658E-38 -0.8335E-36
    -21.609 -0.2159E-35 -0.2683E-33 -0.1600E-35 -0.1992E-33 -0.2533E-35 -0.5808E-33
    -21.522 -0.1408E-32 -0.1279E-30 -0.1044E-32 -0.9496E-31 -0.1654E-32 -0.2769E-30
    -21.435 -0.6287E-30 -0.4168E-28 -0.4659E-30 -0.3096E-28 -0.7387E-30 -0.9032E-28
    -21.349 -0.1919E-27 -0.9286E-26 -0.1423E-27 -0.6898E-26 -0.2257E-27 -0.2013E-25
    -21.262 -0.4004E-25 -0.1369E-23 -0.2968E-25 -0.1017E-23 -0.4711E-25 -0.2969E-23
    -21.175 -0.5524E-23 -0.1414E-21 -0.4095E-23 -0.1050E-21 -0.6503E-23 -0.3069E-21
    -21.089 -0.5338E-21 -0.9927E-20 -0.3958E-21 -0.7376E-20 -0.6289E-21 -0.2156E-19
    -21.002 -0.3507E-19 -0.4728E-18 -0.2601E-19 -0.3514E-18 -0.4134E-19 -0.1027E-17
    -20.915 -0.1562E-17 -0.1522E-16 -0.1159E-17 -0.1131E-16 -0.1842E-17 -0.3308E-16
    -20.829 -0.4700E-16 -0.3291E-15 -0.3488E-16 -0.2448E-15 -0.5545E-16 -0.7158E-15
    -20.742 -0.9501E-15 -0.4743E-14 -0.7053E-15 -0.3529E-14 -0.1121E-14 -0.1032E-13
    -20.655 -0.1279E-13 -0.4488E-13 -0.9502E-14 -0.3343E-13 -0.1507E-13 -0.9760E-13
    -20.569 -0.1131E-12 -0.2713E-12 -0.8413E-13 -0.2026E-12 -0.1329E-12 -0.5889E-12
    -20.482 -0.6402E-12 -0.9860E-12 -0.4775E-12 -0.7411E-12 -0.7463E-12 -0.2123E-11
    -20.395 -0.2189E-11 -0.1763E-11 -0.1644E-11 -0.1356E-11 -0.2505E-11 -0.3632E-11
    -20.309 -0.3704E-11  0.4955E-12 -0.2858E-11  0.2151E-12 -0.3998E-11  0.2210E-11
    -20.222  0.1328E-11  0.9703E-11  0.6362E-12  0.6937E-11  0.2410E-11  0.2477E-10
    -20.135  0.2243E-10  0.2363E-10  0.1617E-10  0.1759E-10  0.2623E-10  0.5670E-10
    -20.049  0.6060E-10  0.3810E-10  0.4575E-10  0.2985E-10  0.6551E-10  0.7636E-10
    -19.962  0.1027E-09  0.5882E-10  0.8098E-10  0.4818E-10  0.1080E-09  0.8101E-10
    -19.875  0.1242E-09  0.8627E-10  0.1017E-09  0.7188E-10  0.1364E-09  0.8518E-10
    -19.789  0.1031E-09  0.9807E-10  0.8698E-10  0.8248E-10  0.1259E-09  0.8755E-10
    -19.702  0.5224E-10  0.7641E-10  0.4519E-10  0.6532E-10  0.7444E-10  0.7372E-10
    -19.615  0.1054E-10  0.3671E-10  0.9585E-11  0.3234E-10  0.2101E-10  0.4314E-10
    -19.528 -0.4319E-11  0.7204E-11 -0.3515E-11  0.6930E-11 -0.3329E-11  0.1344E-10
    -19.442 -0.3914E-11 -0.3004E-11 -0.3345E-11 -0.2358E-11 -0.5295E-11 -0.1115E-11
    -19.355 -0.1382E-11 -0.2792E-11 -0.1195E-11 -0.2424E-11 -0.2144E-11 -0.3067E-11
    -19.268 -0.2892E-12 -0.1028E-11 -0.2514E-12 -0.9217E-12 -0.4861E-12 -0.1402E-11
    -19.182 -0.3921E-13 -0.2259E-12 -0.3413E-13 -0.2069E-12 -0.6950E-13 -0.3492E-12
    -19.095 -0.3553E-14 -0.3222E-13 -0.3090E-14 -0.2995E-13 -0.6528E-14 -0.5419E-13
    -19.008 -0.2181E-15 -0.3068E-14 -0.1892E-15 -0.2884E-14 -0.4104E-15 -0.5478E-14
    -18.922 -0.9125E-17 -0.1974E-15 -0.7889E-17 -0.1871E-15 -0.1743E-16 -0.3679E-15
    -18.835 -0.2610E-18 -0.8630E-17 -0.2247E-18 -0.8232E-17 -0.5029E-18 -0.1658E-16
    -18.748 -0.5107E-20 -0.2571E-18 -0.4381E-20 -0.2464E-18 -0.9889E-20 -0.5049E-18
    -18.662 -0.6845E-22 -0.5229E-20 -0.5848E-22 -0.5025E-20 -0.1328E-21 -0.1043E-19
    -18.575 -0.6308E-24 -0.7260E-22 -0.5375E-24 -0.6994E-22 -0.1234E-23 -0.1464E-21
    -18.488  0.0000E+00 -0.7063E-24  0.0000E+00 -0.6803E-24  0.0000E+00 -0.1421E-23
    -18.402  0.0000E+00  0.0000E+00  0.0000E+00  0.0000E+00  0.0000E+00  0.0000E+00
    -18.315  0.0000E+00  0.0000E+00  0.0000E+00  0.0000E+00  0.0000E+00  0.0000E+00
    -18.228  0.0000E+00  0.0000E+00  0.0000E+00  0.0000E+00  0.0000E+00  0.0000E+00
    -18.142  0.0000E+00  0.0000E+00  0.0000E+00  0.0000E+00  0.0000E+00  0.0000E+00
    -18.055  0.0000E+00  0.0000E+00  0.0000E+00  0.0000E+00  0.0000E+00  0.0000E+00
    -17.968  0.0000E+00  0.0000E+00  0.0000E+00  0.0000E+00  0.0000E+00  0.0000E+00
    -17.882  0.0000E+00  0.0000E+00  0.0000E+00  0.0000E+00  0.0000E+00  0.0000E+00
    -17.795  0.0000E+00  0.0000E+00  0.0000E+00  0.0000E+00  0.0000E+00  0.0000E+00
    -17.708  0.0000E+00  0.0000E+00  0.0000E+00  0.0000E+00  0.0000E+00  0.0000E+00
    -17.622  0.0000E+00  0.0000E+00  0.0000E+00  0.0000E+00  0.0000E+00  0.0000E+00
    -17.535  0.0000E+00  0.0000E+00  0.0000E+00  0.0000E+00  0.0000E+00  0.0000E+00
    -17.448  0.0000E+00  0.0000E+00  0.0000E+00  0.0000E+00  0.0000E+00  0.0000E+00
    -17.361  0.0000E+00  0.0000E+00  0.0000E+00  0.0000E+00  0.0000E+00  0.0000E+00
    -17.275  0.0000E+00  0.0000E+00  0.0000E+00  0.0000E+00  0.0000E+00  0.0000E+00
    -17.188  0.0000E+00  0.0000E+00  0.0000E+00  0.0000E+00  0.0000E+00  0.0000E+00
    -17.101  0.0000E+00  0.0000E+00  0.0000E+00  0.0000E+00  0.0000E+00  0.0000E+00
    -17.015  0.0000E+00  0.0000E+00  0.0000E+00  0.0000E+00  0.0000E+00  0.0000E+00
    -16.928  0.0000E+00  0.0000E+00  0.0000E+00  0.0000E+00  0.0000E+00  0.0000E+00
    -16.841  0.0000E+00  0.0000E+00  0.0000E+00  0.0000E+00  0.0000E+00  0.0000E+00
    -16.755  0.0000E+00  0.0000E+00  0.0000E+00  0.0000E+00  0.0000E+00  0.0000E+00
    -16.668  0.0000E+00  0.0000E+00  0.0000E+00  0.0000E+00  0.0000E+00  0.0000E+00
    -16.581  0.0000E+00  0.0000E+00  0.0000E+00  0.0000E+00  0.0000E+00  0.0000E+00
    -16.495  0.0000E+00  0.0000E+00  0.0000E+00  0.0000E+00  0.0000E+00  0.0000E+00
    -16.408  0.0000E+00  0.0000E+00  0.0000E+00  0.0000E+00  0.0000E+00  0.0000E+00
    -16.321  0.0000E+00  0.0000E+00  0.0000E+00  0.0000E+00  0.0000E+00  0.0000E+00
    -16.235  0.0000E+00  0.0000E+00  0.0000E+00  0.0000E+00  0.0000E+00  0.0000E+00
    -16.148  0.0000E+00  0.0000E+00  0.0000E+00  0.0000E+00  0.0000E+00  0.0000E+00
    -16.061  0.0000E+00  0.0000E+00  0.0000E+00  0.0000E+00  0.0000E+00  0.0000E+00
    -15.975  0.0000E+00  0.0000E+00  0.0000E+00  0.0000E+00  0.0000E+00  0.0000E+00
    -15.888  0.0000E+00  0.0000E+00  0.0000E+00  0.0000E+00  0.0000E+00  0.0000E+00
    -15.801  0.0000E+00  0.0000E+00  0.0000E+00  0.0000E+00  0.0000E+00  0.0000E+00
    -15.715  0.0000E+00  0.0000E+00  0.0000E+00  0.0000E+00  0.0000E+00  0.0000E+00
    -15.628  0.0000E+00  0.0000E+00  0.0000E+00  0.0000E+00  0.0000E+00  0.0000E+00
    -15.541  0.0000E+00  0.0000E+00  0.0000E+00  0.0000E+00  0.0000E+00  0.0000E+00
    -15.455  0.0000E+00  0.0000E+00  0.0000E+00  0.0000E+00  0.0000E+00  0.0000E+00
    -15.368  0.0000E+00  0.0000E+00  0.0000E+00  0.0000E+00  0.0000E+00  0.0000E+00
    -15.281  0.0000E+00  0.0000E+00  0.0000E+00  0.0000E+00  0.0000E+00  0.0000E+00
    -15.194  0.0000E+00  0.0000E+00  0.0000E+00  0.0000E+00  0.0000E+00  0.0000E+00
    -15.108  0.0000E+00  0.0000E+00  0.0000E+00  0.0000E+00  0.0000E+00  0.0000E+00
    -15.021  0.0000E+00  0.0000E+00  0.0000E+00  0.0000E+00  0.0000E+00  0.0000E+00
    -14.934  0.0000E+00  0.0000E+00  0.0000E+00  0.0000E+00  0.0000E+00  0.0000E+00
    -14.848  0.0000E+00  0.0000E+00  0.0000E+00  0.0000E+00  0.0000E+00  0.0000E+00
    -14.761  0.0000E+00  0.0000E+00  0.0000E+00  0.0000E+00  0.0000E+00  0.0000E+00
    -14.674  0.0000E+00  0.0000E+00  0.0000E+00  0.0000E+00  0.0000E+00  0.0000E+00
    -14.588  0.0000E+00  0.0000E+00  0.0000E+00  0.0000E+00  0.0000E+00  0.0000E+00
    -14.501  0.0000E+00  0.0000E+00  0.0000E+00  0.0000E+00  0.0000E+00  0.0000E+00
    -14.414  0.0000E+00  0.0000E+00  0.0000E+00  0.0000E+00  0.0000E+00  0.0000E+00
    -14.328  0.0000E+00  0.0000E+00  0.0000E+00  0.0000E+00  0.0000E+00  0.0000E+00
    -14.241  0.0000E+00  0.0000E+00  0.0000E+00  0.0000E+00  0.0000E+00  0.0000E+00
    -14.154  0.0000E+00  0.0000E+00  0.0000E+00  0.0000E+00  0.0000E+00  0.0000E+00
    -14.068  0.0000E+00  0.0000E+00  0.0000E+00  0.0000E+00  0.0000E+00  0.0000E+00
    -13.981  0.0000E+00  0.0000E+00  0.0000E+00  0.0000E+00  0.0000E+00  0.0000E+00
    -13.894  0.0000E+00  0.0000E+00  0.0000E+00  0.0000E+00  0.0000E+00  0.0000E+00
    -13.808  0.0000E+00  0.0000E+00  0.0000E+00  0.0000E+00  0.0000E+00  0.0000E+00
    -13.721  0.0000E+00  0.0000E+00  0.0000E+00  0.0000E+00  0.0000E+00  0.0000E+00
    -13.634  0.0000E+00  0.0000E+00  0.0000E+00  0.0000E+00  0.0000E+00  0.0000E+00
    -13.548  0.0000E+00  0.0000E+00  0.0000E+00  0.0000E+00  0.0000E+00  0.0000E+00
    -13.461  0.0000E+00  0.0000E+00  0.0000E+00  0.0000E+00  0.0000E+00  0.0000E+00
    -13.374  0.0000E+00  0.0000E+00  0.0000E+00  0.0000E+00  0.0000E+00  0.0000E+00
    -13.287  0.0000E+00  0.0000E+00  0.0000E+00  0.0000E+00  0.0000E+00  0.0000E+00
    -13.201  0.0000E+00  0.0000E+00  0.0000E+00  0.0000E+00  0.0000E+00  0.0000E+00
    -13.114  0.0000E+00  0.0000E+00  0.0000E+00  0.0000E+00  0.0000E+00  0.0000E+00
    -13.027  0.0000E+00  0.0000E+00  0.0000E+00  0.0000E+00  0.0000E+00  0.0000E+00
    -12.941  0.0000E+00  0.0000E+00  0.0000E+00  0.0000E+00  0.0000E+00  0.0000E+00
    -12.854  0.0000E+00  0.0000E+00  0.0000E+00  0.0000E+00  0.0000E+00  0.0000E+00
    -12.767  0.0000E+00  0.0000E+00  0.0000E+00  0.0000E+00  0.0000E+00  0.0000E+00
    -12.681  0.0000E+00  0.0000E+00  0.0000E+00  0.0000E+00  0.0000E+00  0.0000E+00
    -12.594  0.0000E+00  0.0000E+00  0.0000E+00  0.0000E+00  0.0000E+00  0.0000E+00
    -12.507  0.0000E+00  0.0000E+00  0.0000E+00  0.0000E+00  0.0000E+00  0.0000E+00
    -12.421  0.0000E+00  0.0000E+00  0.0000E+00  0.0000E+00  0.0000E+00  0.0000E+00
    -12.334  0.0000E+00  0.0000E+00  0.0000E+00  0.0000E+00  0.0000E+00  0.0000E+00
    -12.247  0.0000E+00  0.0000E+00  0.0000E+00  0.0000E+00  0.0000E+00  0.0000E+00
    -12.161  0.0000E+00  0.0000E+00  0.0000E+00  0.0000E+00  0.0000E+00  0.0000E+00
    -12.074  0.0000E+00  0.0000E+00  0.0000E+00  0.0000E+00  0.0000E+00  0.0000E+00
    -11.987  0.0000E+00  0.0000E+00  0.0000E+00  0.0000E+00  0.0000E+00  0.0000E+00
    -11.901  0.0000E+00  0.0000E+00  0.0000E+00  0.0000E+00  0.0000E+00  0.0000E+00
    -11.814  0.0000E+00  0.0000E+00  0.0000E+00  0.0000E+00  0.0000E+00  0.0000E+00
    -11.727  0.0000E+00  0.0000E+00  0.0000E+00  0.0000E+00  0.0000E+00  0.0000E+00
    -11.641  0.0000E+00  0.0000E+00  0.0000E+00  0.0000E+00  0.0000E+00  0.0000E+00
    -11.554  0.0000E+00  0.0000E+00  0.0000E+00  0.0000E+00  0.0000E+00  0.0000E+00
    -11.467  0.0000E+00  0.0000E+00  0.0000E+00  0.0000E+00  0.0000E+00  0.0000E+00
    -11.381  0.0000E+00  0.0000E+00  0.0000E+00  0.0000E+00  0.0000E+00  0.0000E+00
    -11.294  0.0000E+00  0.0000E+00  0.0000E+00  0.0000E+00  0.0000E+00  0.0000E+00
    -11.207  0.0000E+00  0.0000E+00  0.0000E+00  0.0000E+00  0.0000E+00  0.0000E+00
    -11.120  0.0000E+00  0.0000E+00  0.0000E+00  0.0000E+00  0.0000E+00  0.0000E+00
    -11.034  0.0000E+00  0.0000E+00  0.0000E+00  0.0000E+00  0.0000E+00  0.0000E+00
    -10.947  0.0000E+00  0.0000E+00  0.0000E+00  0.0000E+00  0.0000E+00  0.0000E+00
    -10.860  0.0000E+00  0.0000E+00  0.0000E+00  0.0000E+00  0.0000E+00  0.0000E+00
    -10.774  0.0000E+00  0.0000E+00  0.0000E+00  0.0000E+00  0.0000E+00  0.0000E+00
    -10.687  0.0000E+00  0.0000E+00  0.0000E+00  0.0000E+00  0.0000E+00  0.0000E+00
    -10.600  0.0000E+00  0.0000E+00  0.0000E+00  0.0000E+00  0.0000E+00  0.0000E+00
    -10.514  0.0000E+00  0.0000E+00  0.0000E+00  0.0000E+00  0.0000E+00  0.0000E+00
    -10.427  0.0000E+00  0.0000E+00  0.0000E+00  0.0000E+00  0.0000E+00  0.0000E+00
    -10.340  0.0000E+00  0.0000E+00  0.0000E+00  0.0000E+00  0.0000E+00  0.0000E+00
    -10.254 -0.2148E-32  0.0000E+00 -0.2402E-33  0.0000E+00 -0.1376E-35  0.0000E+00