       N       E                     dE             d eps       ncg     rms          rms(c)
DAV:   1    -0.529724185141E+03   -0.52972E+03   -0.10314E+03  7812   0.393E+01    0.571E+00
RMM:   2    -0.537448466408E+03   -0.77243E+01   -0.71207E+01  7321   0.200E+01    0.111E+01
RMM:   3    -0.540826928662E+03   -0.33785E+01   -0.18188E+01  8585   0.519E+00    0.198E+01
RMM:   4    -0.538861761242E+03    0.19652E+01   -0.37305E+00  8244   0.258E+00    0.650E+00
RMM:   5    -0.538703760272E+03    0.15800E+00   -0.10268E+00  8278   0.147E+00    0.371E+00
RMM:   6    -0.538695199963E+03    0.85603E-02   -0.49458E-01  8074   0.113E+00    0.356E+00
RMM:   7    -0.538666790043E+03    0.28410E-01   -0.23501E-01  7817   0.733E-01    0.222E+00
RMM:   8    -0.538665627964E+03    0.11621E-02   -0.13640E-01  8312   0.485E-01    0.223E+00
RMM:   9    -0.538652268875E+03    0.13359E-01   -0.70779E-02  7594   0.397E-01    0.165E+00
RMM:  10    -0.538650357511E+03    0.19114E-02   -0.50623E-02  7562   0.345E-01    0.159E+00
RMM:  11    -0.538630525254E+03    0.19832E-01   -0.41756E-02  7495   0.389E-01    0.928E-01
RMM:  12    -0.538627428333E+03    0.30969E-02   -0.26516E-02  7521   0.289E-01    0.610E-01
RMM:  13    -0.538632829617E+03   -0.54013E-02   -0.19070E-02  7698   0.222E-01    0.606E-01
RMM:  14    -0.538637769011E+03   -0.49394E-02   -0.10171E-02  7630   0.145E-01    0.408E-01
RMM:  15    -0.538655550927E+03   -0.17782E-01   -0.72531E-03  7734   0.113E-01    0.490E-01
RMM:  16    -0.538671256625E+03   -0.15706E-01   -0.43577E-03  7404   0.103E-01    0.369E-01
RMM:  17    -0.538697812439E+03   -0.26556E-01   -0.40347E-03  7450   0.113E-01    0.448E-01
RMM:  18    -0.538736107480E+03   -0.38295E-01   -0.25698E-03  7415   0.100E-01    0.241E-01
RMM:  19    -0.538757601852E+03   -0.21494E-01   -0.18843E-03  7450   0.872E-02    0.268E-01
RMM:  20    -0.538786199093E+03   -0.28597E-01   -0.16047E-03  7399   0.737E-02    0.163E-01
RMM:  21    -0.538796890096E+03   -0.10691E-01   -0.10610E-03  7603   0.626E-02    0.174E-01
RMM:  22    -0.538809311755E+03   -0.12422E-01   -0.14511E-03  7714   0.596E-02    0.122E-01
RMM:  23    -0.538810192217E+03   -0.88046E-03   -0.45109E-04  8095   0.396E-02    0.805E-02
RMM:  24    -0.538809703710E+03    0.48851E-03   -0.22535E-04  7774   0.324E-02    0.805E-02
RMM:  25    -0.538809242471E+03    0.46124E-03    0.78151E-06  7401   0.247E-02    0.683E-02
RMM:  26    -0.538809067603E+03    0.17487E-03    0.53753E-05  6683   0.162E-02    0.393E-02
RMM:  27    -0.538809053507E+03    0.14096E-04    0.11637E-04  5314   0.143E-02    0.219E-02
RMM:  28    -0.538809303873E+03   -0.25037E-03    0.11170E-04  5290   0.107E-02    0.326E-02
RMM:  29    -0.538809454807E+03   -0.15093E-03    0.12855E-04  4692   0.981E-03    0.296E-02
RMM:  30    -0.538809891302E+03   -0.43650E-03    0.11781E-04  4682   0.721E-03    0.219E-02
RMM:  31    -0.538810167858E+03   -0.27656E-03    0.11501E-04  4544   0.729E-03    0.178E-02
RMM:  32    -0.538810579095E+03   -0.41124E-03    0.10408E-04  4638   0.660E-03    0.112E-02
RMM:  33    -0.538810937470E+03   -0.35838E-03    0.93019E-05  4575   0.564E-03    0.112E-02
RMM:  34    -0.538811263773E+03   -0.32630E-03    0.81197E-05  4565   0.562E-03    0.844E-03
RMM:  35    -0.538811632334E+03   -0.36856E-03    0.68189E-05  4653   0.457E-03    0.791E-03
RMM:  36    -0.538811810413E+03   -0.17808E-03    0.61505E-05  4440   0.420E-03    0.762E-03
RMM:  37    -0.538812067949E+03   -0.25754E-03    0.49180E-05  4547   0.408E-03    0.633E-03
RMM:  38    -0.538812187712E+03   -0.11976E-03    0.43748E-05  4303   0.366E-03    0.527E-03
RMM:  39    -0.538812251651E+03   -0.63939E-04    0.38316E-05  3922   0.292E-03    0.407E-03
RMM:  40    -0.538812335142E+03   -0.83491E-04    0.30668E-05  3777   0.247E-03    0.333E-03
RMM:  41    -0.538812368412E+03   -0.33269E-04    0.27062E-05  3464   0.238E-03    0.232E-03
RMM:  42    -0.538812390116E+03   -0.21705E-04    0.22511E-05  3276   0.199E-03    0.173E-03
RMM:  43    -0.538812399492E+03   -0.93751E-05    0.19253E-05  3010   0.190E-03
   1 F= -.55217638E+03 E0= -.55220280E+03  d E =-.552176E+03  mag=   137.0324
       N       E                     dE             d eps       ncg     rms          rms(c)
DAV:   1    -0.538812076879E+03    0.31324E-03   -0.52066E-01  7506   0.121E+00    0.396E-01
RMM:   2    -0.538817234018E+03   -0.51571E-02   -0.18915E-02  7798   0.329E-01    0.603E-01
RMM:   3    -0.538830992623E+03   -0.13759E-01   -0.13784E-02  7601   0.250E-01    0.145E+00
RMM:   4    -0.538817185549E+03    0.13807E-01   -0.65442E-03  7244   0.206E-01    0.649E-01
RMM:   5    -0.538814990117E+03    0.21954E-02   -0.20715E-03  7288   0.133E-01    0.172E-01
RMM:   6    -0.538814934336E+03    0.55782E-04   -0.70526E-04  7474   0.552E-02    0.135E-01
RMM:   7    -0.538814941419E+03   -0.70836E-05   -0.41772E-04  7771   0.426E-02    0.153E-01
RMM:   8    -0.538814799967E+03    0.14145E-03   -0.23274E-04  7219   0.421E-02    0.631E-02
RMM:   9    -0.538814857083E+03   -0.57116E-04   -0.22502E-04  7269   0.381E-02    0.124E-01
RMM:  10    -0.538814781706E+03    0.75377E-04   -0.92948E-05  6965   0.291E-02    0.401E-02
RMM:  11    -0.538814779896E+03    0.18103E-05   -0.31231E-05  4878   0.142E-02
   2 F= -.55217802E+03 E0= -.55220462E+03  d E =-.163206E-02  mag=   137.0504
       N       E                     dE             d eps       ncg     rms          rms(c)
DAV:   1    -0.538813633115E+03    0.11486E-02   -0.40334E-01  7362   0.106E+00    0.351E-01
RMM:   2    -0.538817730168E+03   -0.40971E-02   -0.15063E-02  7774   0.296E-01    0.552E-01
RMM:   3    -0.538828019755E+03   -0.10290E-01   -0.10472E-02  7577   0.222E-01    0.126E+00
RMM:   4    -0.538817666187E+03    0.10354E-01   -0.52011E-03  7244   0.183E-01    0.590E-01
RMM:   5    -0.538815812991E+03    0.18532E-02   -0.16579E-03  7268   0.120E-01    0.156E-01
RMM:   6    -0.538815766116E+03    0.46874E-04   -0.57004E-04  7438   0.506E-02    0.123E-01
RMM:   7    -0.538815768319E+03   -0.22024E-05   -0.35261E-04  7850   0.382E-02    0.141E-01
RMM:   8    -0.538815641237E+03    0.12708E-03   -0.18768E-04  7206   0.377E-02    0.534E-02
RMM:   9    -0.538815693018E+03   -0.51780E-04   -0.16594E-04  7295   0.318E-02    0.109E-01
RMM:  10    -0.538815636018E+03    0.57000E-04   -0.68725E-05  6605   0.250E-02    0.333E-02
RMM:  11    -0.538815643569E+03   -0.75514E-05   -0.24255E-05  4657   0.124E-02
   3 F= -.55217822E+03 E0= -.55220494E+03  d E =-.183592E-02  mag=   137.0773
       N       E                     dE             d eps       ncg     rms          rms(c)
DAV:   1    -0.538814384591E+03    0.12514E-02   -0.51868E-01  7236   0.118E+00    0.341E-01
RMM:   2    -0.538818454139E+03   -0.40695E-02   -0.24534E-02  7893   0.328E-01    0.525E-01
RMM:   3    -0.538820640339E+03   -0.21862E-02   -0.88802E-03  7290   0.251E-01    0.828E-01
RMM:   4    -0.538820253071E+03    0.38727E-03   -0.32383E-03  7265   0.154E-01    0.661E-01
RMM:   5    -0.538817156443E+03    0.30966E-02   -0.87782E-04  7208   0.838E-02    0.166E-01
RMM:   6    -0.538817043436E+03    0.11301E-03   -0.40047E-04  7224   0.510E-02    0.115E-01
RMM:   7    -0.538817008243E+03    0.35193E-04   -0.25265E-04  7807   0.337E-02    0.122E-01
RMM:   8    -0.538816928636E+03    0.79608E-04   -0.16690E-04  7252   0.348E-02    0.664E-02
RMM:   9    -0.538817006940E+03   -0.78304E-04   -0.21724E-04  7275   0.370E-02    0.124E-01
RMM:  10    -0.538816968718E+03    0.38221E-04   -0.93808E-05  7043   0.292E-02    0.371E-02
RMM:  11    -0.538816992535E+03   -0.23816E-04   -0.31835E-05  4860   0.139E-02    0.342E-02
RMM:  12    -0.538817031273E+03   -0.38739E-04   -0.14832E-05  4202   0.117E-02    0.187E-02
RMM:  13    -0.538817054217E+03   -0.22944E-04   -0.72719E-06  4006   0.721E-03    0.168E-02
RMM:  14    -0.538817136581E+03   -0.82363E-04   -0.55360E-06  3928   0.622E-03    0.148E-02
RMM:  15    -0.538817193073E+03   -0.56493E-04   -0.51082E-06  3881   0.622E-03    0.140E-02
RMM:  16    -0.538817285280E+03   -0.92207E-04   -0.46130E-06  3841   0.518E-03    0.114E-02
RMM:  17    -0.538817339432E+03   -0.54152E-04   -0.37388E-06  3819   0.510E-03    0.985E-03
RMM:  18    -0.538817436561E+03   -0.97129E-04   -0.43095E-06  3847   0.416E-03    0.764E-03
RMM:  19    -0.538817492335E+03   -0.55774E-04   -0.31759E-06  3798   0.414E-03    0.770E-03
RMM:  20    -0.538817586132E+03   -0.93796E-04   -0.46543E-06  3907   0.377E-03    0.628E-03
RMM:  21    -0.538817661926E+03   -0.75795E-04   -0.48793E-06  3973   0.399E-03    0.733E-03
RMM:  22    -0.538817734226E+03   -0.72300E-04   -0.62253E-06  4180   0.428E-03    0.442E-03
RMM:  23    -0.538817768773E+03   -0.34546E-04   -0.42340E-06  3857   0.363E-03    0.467E-03
RMM:  24    -0.538817784016E+03   -0.15243E-04   -0.25872E-06  3716   0.330E-03    0.283E-03
RMM:  25    -0.538817792172E+03   -0.81567E-05   -0.17172E-06  3175   0.235E-03
   4 F= -.55217968E+03 E0= -.55220645E+03  d E =-.146206E-02  mag=   137.1384
