 vasp.5.4.4.18Apr17-6-g9f103f2a35 (build Dec 15 2018 21:27:11) complex          
  
 executed on             LinuxIFC date 2022.03.06  06:22:42
 running on   72 total cores
 distrk:  each k-point on   72 cores,    1 groups
 distr:  one band on NCORES_PER_BAND=  24 cores,    3 groups


--------------------------------------------------------------------------------------------------------


 INCAR:
 POTCAR:    PAW_PBE Fe 06Sep2000                  
 POTCAR:    PAW_PBE O 08Apr2002                   

 ----------------------------------------------------------------------------- 
|                                                                             |
|           W    W    AA    RRRRR   N    N  II  N    N   GGGG   !!!           |
|           W    W   A  A   R    R  NN   N  II  NN   N  G    G  !!!           |
|           W    W  A    A  R    R  N N  N  II  N N  N  G       !!!           |
|           W WW W  AAAAAA  RRRRR   N  N N  II  N  N N  G  GGG   !            |
|           WW  WW  A    A  R   R   N   NN  II  N   NN  G    G                |
|           W    W  A    A  R    R  N    N  II  N    N   GGGG   !!!           |
|                                                                             |
|      For optimal performance we recommend to set                            |
|        NCORE= 4 - approx SQRT( number of cores)                             |
|      NCORE specifies how many cores store one orbital (NPAR=cpu/NCORE).     |
|      This setting can  greatly improve the performance of VASP for DFT.     |
|      The default,   NCORE=1            might be grossly inefficient         |
|      on modern multi-core architectures or massively parallel machines.     |
|      Do your own testing !!!!                                               |
|      Unfortunately you need to use the default for GW and RPA calculations. |
|      (for HF NCORE is supported but not extensively tested yet)             |
|                                                                             |
 ----------------------------------------------------------------------------- 

 POTCAR:    PAW_PBE Fe 06Sep2000                  
   VRHFIN =Fe:  d7 s1                                                           
   LEXCH  = PE                                                                  
   EATOM  =   594.3153 eV,   43.6809 Ry                                         
                                                                                
   TITEL  = PAW_PBE Fe 06Sep2000                                                
   LULTRA =        F    use ultrasoft PP ?                                      
   IUNSCR =        1    unscreen: 0-lin 1-nonlin 2-no                           
   RPACOR =    2.000    partial core radius                                     
   POMASS =   55.847; ZVAL   =    8.000    mass and valenz                      
   RCORE  =    2.300    outmost cutoff radius                                   
   RWIGS  =    2.460; RWIGS  =    1.302    wigner-seitz radius (au A)           
   ENMAX  =  267.882; ENMIN  =  200.911 eV                                      
   RCLOC  =    1.701    cutoff for local pot                                    
   LCOR   =        T    correct aug charges                                     
   LPAW   =        T    paw PP                                                  
   EAUG   =  511.368                                                            
   DEXC   =    0.000                                                            
   RMAX   =    2.356    core radius for proj-oper                               
   RAUG   =    1.300    factor for augmentation sphere                          
   RDEP   =    2.442    radius for radial grids                                 
   RDEPT  =    1.890    core radius for aug-charge                              
                                                                                
   Atomic configuration                                                         
    9 entries                                                                   
     n  l   j            E        occ.                                          
     1  0  0.50     -6993.8440   2.0000                                         
     2  0  0.50      -814.6047   2.0000                                         
     2  1  1.50      -693.3689   6.0000                                         
     3  0  0.50       -89.4732   2.0000                                         
     3  1  1.50       -55.6373   6.0000                                         
     3  2  2.50        -3.8151   7.0000                                         
     4  0  0.50        -4.2551   1.0000                                         
     4  1  1.50        -3.4015   0.0000                                         
     4  3  2.50        -1.3606   0.0000                                         
   Description                                                                  
     l       E           TYP  RCUT    TYP  RCUT                                 
     2     -3.8151135     23  2.300                                             
     2     -5.1756961     23  2.300                                             
     0     -4.2550963     23  2.300                                             
     0      7.2035603     23  2.300                                             
     1     -2.7211652     23  2.300                                             
     1     18.4316424     23  2.300                                             
  local pseudopotential read in
  partial core-charges read in
  partial kinetic energy density read in
  atomic valenz-charges read in
  non local Contribution for L=           2  read in
    real space projection operators read in
  non local Contribution for L=           2  read in
    real space projection operators read in
  non local Contribution for L=           0  read in
    real space projection operators read in
  non local Contribution for L=           0  read in
    real space projection operators read in
  non local Contribution for L=           1  read in
    real space projection operators read in
  non local Contribution for L=           1  read in
    real space projection operators read in
    PAW grid and wavefunctions read in
 
   number of l-projection  operators is LMAX  =           6
   number of lm-projection operators is LMMAX =          18
 
 POTCAR:    PAW_PBE O 08Apr2002                   
   VRHFIN =O: s2p4                                                              
   LEXCH  = PE                                                                  
   EATOM  =   432.3788 eV,   31.7789 Ry                                         
                                                                                
   TITEL  = PAW_PBE O 08Apr2002                                                 
   LULTRA =        F    use ultrasoft PP ?                                      
   IUNSCR =        1    unscreen: 0-lin 1-nonlin 2-no                           
   RPACOR =    1.200    partial core radius                                     
   POMASS =   16.000; ZVAL   =    6.000    mass and valenz                      
   RCORE  =    1.520    outmost cutoff radius                                   
   RWIGS  =    1.550; RWIGS  =    0.820    wigner-seitz radius (au A)           
   ENMAX  =  400.000; ENMIN  =  300.000 eV                                      
   ICORE  =        2    local potential                                         
   LCOR   =        T    correct aug charges                                     
   LPAW   =        T    paw PP                                                  
   EAUG   =  605.392                                                            
   DEXC   =    0.000                                                            
   RMAX   =    1.553    core radius for proj-oper                               
   RAUG   =    1.300    factor for augmentation sphere                          
   RDEP   =    1.550    radius for radial grids                                 
   RDEPT  =    1.329    core radius for aug-charge                              
                                                                                
   Atomic configuration                                                         
    4 entries                                                                   
     n  l   j            E        occ.                                          
     1  0  0.50      -514.6923   2.0000                                         
     2  0  0.50       -23.9615   2.0000                                         
     2  1  0.50        -9.0305   4.0000                                         
     3  2  1.50        -9.5241   0.0000                                         
   Description                                                                  
     l       E           TYP  RCUT    TYP  RCUT                                 
     0    -23.9615318     23  1.200                                             
     0     -9.5240782     23  1.200                                             
     1     -9.0304911     23  1.520                                             
     1      8.1634956     23  1.520                                             
     2     -9.5240782      7  1.500                                             
  local pseudopotential read in
  partial core-charges read in
  partial kinetic energy density read in
  kinetic energy density of atom read in
  atomic valenz-charges read in
  non local Contribution for L=           0  read in
    real space projection operators read in
  non local Contribution for L=           0  read in
    real space projection operators read in
  non local Contribution for L=           1  read in
    real space projection operators read in
  non local Contribution for L=           1  read in
    real space projection operators read in
    PAW grid and wavefunctions read in
 
   number of l-projection  operators is LMAX  =           4
   number of lm-projection operators is LMMAX =           8
 
 Optimization of the real space projectors (new method)

 maximal supplied QI-value         = 16.25
 optimisation between [QCUT,QGAM] = [ 11.54, 23.24] = [ 37.28,151.24] Ry 
 Optimized for a Real-space Cutoff    1.53 Angstroem

   l    n(q)    QCUT    max X(q) W(low)/X(q) W(high)/X(q)  e(spline) 
   2     10    11.539    80.901    0.11E-03    0.14E-03    0.21E-06
   2     10    11.539    75.754    0.11E-03    0.14E-03    0.22E-06
   0     11    11.539    58.752    0.52E-04    0.18E-04    0.33E-06
   0     11    11.539    30.679    0.44E-04    0.16E-04    0.30E-06
   1     10    11.539    17.977    0.53E-04    0.29E-04    0.13E-06
   1     10    11.539    13.559    0.44E-04    0.25E-04    0.11E-06
 Optimization of the real space projectors (new method)

 maximal supplied QI-value         = 24.76
 optimisation between [QCUT,QGAM] = [ 11.64, 23.27] = [ 37.91,151.63] Ry 
 Optimized for a Real-space Cutoff    1.14 Angstroem

   l    n(q)    QCUT    max X(q) W(low)/X(q) W(high)/X(q)  e(spline) 
   0      8    11.635    20.381    0.10E-03    0.33E-03    0.24E-06
   0      8    11.635    15.268    0.11E-03    0.35E-03    0.26E-06
   1      7    11.635     5.964    0.24E-03    0.31E-03    0.30E-06
   1      7    11.635     5.382    0.22E-03    0.25E-03    0.26E-06
  PAW_PBE Fe 06Sep2000                  :
 energy of atom  1       EATOM= -594.3153
 kinetic energy error for atom=    0.0026 (will be added to EATOM!!)
  PAW_PBE O 08Apr2002                   :
 energy of atom  2       EATOM= -432.3788
 kinetic energy error for atom=    0.0208 (will be added to EATOM!!)
 
 
 POSCAR: POSCAR                                  
  positions in direct lattice
  velocities in cartesian coordinates
 exchange correlation table for  LEXCH =        8
   RHO(1)=    0.500       N(1)  =     2000
   RHO(2)=  100.500       N(2)  =     4000

 VTST: version 3.2, (02/03/18)

 CHAIN: initializing optimizer
 
 OPT: Using VASP Conjugate-Gradient optimizer
 CHAIN: Read ICHAIN            0
 
 POSCAR: POSCAR                                  
  positions in direct lattice
  velocities in cartesian coordinates
 


--------------------------------------------------------------------------------------------------------


 ion  position               nearest neighbor table
   1  0.087  0.163  0.095-   5 2.48  13 2.48  17 2.48  49 2.48  31 2.48   3 2.48  29 2.87  53 2.87
                            15 2.87  19 2.87
   2  0.089  0.161  0.285-  32 2.37   4 2.40   3 2.43  31 2.45  18 2.47  14 2.48  50 2.49   6 2.49
                            54 2.82  16 2.82  19 2.83  15 2.84  20 2.84  30 2.88
   3  0.212  0.038  0.191-  54 2.40   2 2.43  15 2.48   7 2.48  51 2.48  19 2.48  53 2.48   1 2.48
                            50 2.83   6 2.85  31 2.87  55 2.87  49 2.87   5 2.87
   4  0.214  0.034  0.376-  54 2.39   2 2.40  52 2.42  16 2.43  20 2.52   8 2.53  56 2.76  50 2.77
                             6 2.82  32 2.85
   5  0.337  0.163  0.095-   1 2.48   9 2.48  21 2.48  53 2.48   7 2.48  19 2.48  17 2.87  57 2.87
                             3 2.87  23 2.87
   6  0.339  0.164  0.285-   8 2.44   7 2.44  19 2.45  20 2.46  10 2.48  22 2.49   2 2.49  54 2.49
                            23 2.82   4 2.82   3 2.85  58 2.86  18 2.87  24 2.89
   7  0.462  0.038  0.191-   6 2.44  58 2.47  11 2.48   3 2.48  55 2.48  23 2.48  57 2.48   5 2.48
                            54 2.81  10 2.86  19 2.87  59 2.87  53 2.87   9 2.87
   8  0.465  0.045  0.380-  65 1.86   6 2.44  12 2.44  58 2.45  56 2.47  24 2.50   4 2.53  10 2.78
                            20 2.84  60 2.93  54 2.94
   9  0.587  0.163  0.095-   5 2.48  13 2.48  25 2.48  57 2.48  11 2.48  23 2.48  21 2.87  61 2.87
                             7 2.87  27 2.87
  10  0.589  0.161  0.286-  12 2.44  11 2.45   6 2.48  23 2.48  26 2.48  14 2.48  58 2.49  24 2.50
                             8 2.78  27 2.85  62 2.85  28 2.86   7 2.86  22 2.92
  11  0.712  0.038  0.191-  62 2.43  10 2.45  15 2.48   7 2.48  59 2.48  27 2.48  61 2.48   9 2.48
                            14 2.83  23 2.87  63 2.87  13 2.87  57 2.87  58 2.87
  12  0.716  0.027  0.377-  66 1.86  62 2.39  60 2.41  10 2.44   8 2.44  16 2.53  28 2.56  58 2.76
                            64 2.80  14 2.86  24 3.02
  13  0.837  0.163  0.095-   1 2.48   9 2.48  29 2.48  61 2.48  15 2.48  27 2.48  49 2.87  25 2.87
                            11 2.87  31 2.87
  14  0.839  0.161  0.285-  15 2.42  27 2.45  28 2.46  16 2.47  10 2.48  30 2.48   2 2.48  62 2.48
                            32 2.80  31 2.83  11 2.83  12 2.86  50 2.86  26 2.89
  15  0.962  0.038  0.191-  14 2.42  50 2.46   3 2.48  11 2.48  31 2.48  63 2.48  13 2.48  49 2.48
                            62 2.83   2 2.84  27 2.87  51 2.87   1 2.87  61 2.87
  16  0.969  0.033  0.378-  66 1.86  50 2.41   4 2.43  64 2.46  14 2.47  32 2.50  12 2.53   2 2.82
                            62 2.86  28 2.87  52 2.88
  17  0.087  0.413  0.095-  21 2.48  29 2.48   1 2.48  33 2.48  19 2.48  47 2.48  45 2.87   5 2.87
                            31 2.87  35 2.87
  18  0.087  0.411  0.285-  48 2.44  19 2.45  20 2.45  47 2.45   2 2.47  34 2.48  22 2.48  30 2.48
                            36 2.73  32 2.76  31 2.83  35 2.85  46 2.87   6 2.87
  19  0.212  0.288  0.191-   6 2.45  18 2.45  23 2.48  31 2.48   3 2.48  35 2.48   5 2.48  17 2.48
                             2 2.83  22 2.84   7 2.87  47 2.87  21 2.87   1 2.87
  20  0.212  0.288  0.380-  65 1.86  36 2.43  32 2.44  18 2.45   6 2.46  24 2.51   4 2.52   8 2.84
                             2 2.84  22 2.84  48 2.85
  21  0.337  0.413  0.095-  17 2.48  25 2.48   5 2.48  37 2.48  35 2.48  23 2.48   9 2.87  33 2.87
                            19 2.87  39 2.87
  22  0.335  0.416  0.285-  35 2.43  36 2.44  24 2.44  38 2.45  23 2.47  18 2.48  26 2.48   6 2.49
                            34 2.82  39 2.83  19 2.84  20 2.84  10 2.92  40 2.96
  23  0.462  0.288  0.191-  22 2.47  10 2.48  19 2.48  27 2.48   7 2.48  39 2.48  21 2.48   9 2.48
                             6 2.82  26 2.85  35 2.87  11 2.87   5 2.87  25 2.87
  24  0.461  0.299  0.380-  69 1.87  65 1.89  22 2.44  10 2.50   8 2.50  20 2.51  28 2.52  40 2.57
                            26 2.77  36 2.88   6 2.89  12 3.02
  25  0.587  0.413  0.095-  21 2.48  29 2.48   9 2.48  41 2.48  39 2.48  27 2.48  13 2.87  37 2.87
                            23 2.87  43 2.87
  26  0.586  0.412  0.287-  42 2.46  39 2.47  27 2.48  10 2.48  22 2.48  28 2.48  30 2.49  40 2.63
                            44 2.74  24 2.77  23 2.85  38 2.86  43 2.87  14 2.89
  27  0.712  0.288  0.191-  14 2.45  26 2.48  23 2.48  31 2.48  11 2.48  43 2.48  25 2.48  13 2.48
                            30 2.83  10 2.85  39 2.87  15 2.87   9 2.87  29 2.87
  28  0.719  0.284  0.381-  69 1.86  66 1.91  44 2.43  14 2.46  32 2.47  26 2.48  24 2.52  12 2.56
                            30 2.83  10 2.86  16 2.87
  29  0.837  0.413  0.095-  17 2.48  25 2.48  13 2.48  45 2.48  43 2.48  31 2.48   1 2.87  41 2.87
                            27 2.87  47 2.87
  30  0.837  0.411  0.285-  32 2.41  44 2.44  31 2.45  43 2.45  14 2.48  18 2.48  46 2.48  26 2.49
                            48 2.81  28 2.83  27 2.83  42 2.85  47 2.85   2 2.88
  31  0.962  0.288  0.191-  30 2.45   2 2.45  27 2.48  19 2.48  15 2.48  47 2.48   1 2.48  29 2.48
                            14 2.83  18 2.83  43 2.87   3 2.87  17 2.87  13 2.87
  32  0.968  0.284  0.376-   2 2.37  30 2.41  20 2.44  48 2.45  28 2.47  16 2.50  18 2.76  14 2.80
                             4 2.85  44 2.93
  33  0.087  0.663  0.095-  37 2.48  45 2.48  17 2.48  49 2.48  35 2.48  63 2.48  61 2.87  21 2.87
                            47 2.87  51 2.87
  34  0.088  0.661  0.284-  64 2.36  36 2.38  35 2.42  63 2.44  18 2.48  38 2.48  46 2.49  50 2.49
                            47 2.81  22 2.82  51 2.83  62 2.87  48 2.88  52 2.94
  35  0.212  0.538  0.191-  34 2.42  22 2.43  39 2.48  47 2.48  19 2.48  51 2.48  21 2.48  33 2.48
                            38 2.79  18 2.85  23 2.87  63 2.87  37 2.87  17 2.87
  36  0.199  0.537  0.377-  68 1.83  34 2.38  48 2.38  20 2.43  22 2.44  52 2.57  40 2.57  18 2.73
                            64 2.78  24 2.88  38 2.92
  37  0.337  0.663  0.095-  33 2.48  41 2.48  21 2.48  53 2.48  51 2.48  39 2.48  25 2.87  49 2.87
                            35 2.87  55 2.87
  38  0.337  0.662  0.282-  39 2.40  51 2.40  22 2.45  52 2.46  40 2.46  34 2.48  42 2.48  54 2.50
                            35 2.79  55 2.81  56 2.84  50 2.85  26 2.86  36 2.92
  39  0.462  0.538  0.191-  38 2.40  26 2.47  35 2.48  43 2.48  23 2.48  55 2.48  37 2.48  25 2.48
                            42 2.82  22 2.83  51 2.87  27 2.87  21 2.87  41 2.87
  40  0.449  0.561  0.384-  69 1.90  68 1.91  56 2.41  38 2.46  44 2.47  24 2.57  52 2.57  36 2.57
                            26 2.63  42 2.84  22 2.96
  41  0.587  0.663  0.095-  37 2.48  45 2.48  25 2.48  57 2.48  55 2.48  43 2.48  29 2.87  53 2.87
                            39 2.87  59 2.87
  42  0.588  0.659  0.285-  56 2.41  44 2.41  43 2.44  26 2.46  55 2.46  46 2.48  38 2.48  58 2.51
                            39 2.82  40 2.84  30 2.85  60 2.85  59 2.86  54 2.92
  43  0.712  0.538  0.191-  42 2.44  30 2.45  39 2.48  47 2.48  27 2.48  59 2.48  41 2.48  29 2.48
                            46 2.82  55 2.87  31 2.87  25 2.87  45 2.87  26 2.87
  44  0.705  0.533  0.378-  67 1.88  42 2.41  28 2.43  30 2.44  40 2.47  69 2.52  48 2.54  60 2.54
                            26 2.74  46 2.90  32 2.93  56 2.94
  45  0.837  0.663  0.095-  33 2.48  41 2.48  29 2.48  61 2.48  59 2.48  47 2.48  17 2.87  57 2.87
                            43 2.87  63 2.87
  46  0.837  0.662  0.284-  47 2.43  59 2.44  60 2.44  48 2.47  62 2.48  42 2.48  30 2.48  34 2.49
                            64 2.77  43 2.82  63 2.83  18 2.87  58 2.87  44 2.90
  47  0.962  0.538  0.191-  46 2.43  18 2.45  43 2.48  35 2.48  31 2.48  63 2.48  17 2.48  45 2.48
                            34 2.81  30 2.85  59 2.87  19 2.87  33 2.87  29 2.87
  48  0.960  0.533  0.379-  67 1.88  36 2.38  18 2.44  32 2.45  46 2.47  44 2.54  64 2.54  30 2.81
                            60 2.85  20 2.85  34 2.88
  49  0.087  0.913  0.095-  53 2.48  61 2.48   1 2.48  33 2.48  15 2.48  51 2.48  37 2.87  13 2.87
                             3 2.87  63 2.87
  50  0.089  0.911  0.285-  16 2.41  51 2.43  54 2.45  15 2.46   2 2.49  34 2.49  52 2.50  62 2.50
                            64 2.74   4 2.77   3 2.83  63 2.84  38 2.85  14 2.86
  51  0.212  0.788  0.191-  38 2.40  50 2.43  55 2.48  63 2.48   3 2.48  35 2.48  49 2.48  37 2.48
                            54 2.80  34 2.83  39 2.87  15 2.87  53 2.87  33 2.87
  52  0.225  0.786  0.380-  68 1.85  56 2.38   4 2.42  38 2.46  50 2.50  36 2.57  40 2.57  64 2.59
                            54 2.81  16 2.88  34 2.94
  53  0.337  0.913  0.095-  49 2.48  57 2.48   5 2.48  37 2.48  55 2.48   3 2.48  41 2.87   1 2.87
                             7 2.87  51 2.87
  54  0.335  0.915  0.283-  56 2.34   4 2.39   3 2.40  55 2.43  50 2.45   6 2.49  58 2.49  38 2.50
                            51 2.80   7 2.81  52 2.81   2 2.82  42 2.92   8 2.94
  55  0.462  0.788  0.191-  54 2.43  42 2.46  51 2.48  59 2.48   7 2.48  39 2.48  41 2.48  53 2.48
                            38 2.81  58 2.85  43 2.87   3 2.87  37 2.87  57 2.87
  56  0.459  0.799  0.373-  54 2.34  52 2.38  42 2.41  40 2.41   8 2.47  60 2.50  58 2.66   4 2.76
                            38 2.84  44 2.94
  57  0.587  0.913  0.095-  53 2.48  61 2.48   9 2.48  41 2.48  59 2.48   7 2.48  45 2.87   5 2.87
                            11 2.87  55 2.87
  58  0.587  0.912  0.287-  60 2.44   8 2.45  59 2.47   7 2.47  62 2.49  10 2.49  54 2.49  42 2.51
                            56 2.66  12 2.76  55 2.85   6 2.86  11 2.87  46 2.87
  59  0.712  0.788  0.191-  46 2.44  58 2.47  55 2.48  63 2.48  11 2.48  43 2.48  45 2.48  57 2.48
                            62 2.81  42 2.86  47 2.87   7 2.87  41 2.87  61 2.87
  60  0.716  0.785  0.379-  67 1.88  12 2.41  46 2.44  58 2.44  64 2.48  56 2.50  44 2.54  62 2.84
                            48 2.85  42 2.85   8 2.93
  61  0.837  0.913  0.095-  49 2.48  57 2.48  13 2.48  45 2.48  11 2.48  63 2.48   9 2.87  33 2.87
                            59 2.87  15 2.87
  62  0.837  0.911  0.284-  64 2.36  12 2.39  63 2.43  11 2.43  46 2.48  14 2.48  58 2.49  50 2.50
                            59 2.81  15 2.83  60 2.84  10 2.85  16 2.86  34 2.87
  63  0.962  0.788  0.191-  62 2.43  34 2.44  59 2.48  51 2.48  47 2.48  15 2.48  61 2.48  33 2.48
                            46 2.83  50 2.84  35 2.87  11 2.87  49 2.87  45 2.87
  64  0.964  0.787  0.373-  34 2.36  62 2.36  16 2.46  60 2.48  48 2.54  52 2.59  50 2.74  46 2.77
                            36 2.78  12 2.80
  65  0.369  0.200  0.432-  20 1.86   8 1.86  24 1.89
  66  0.811  0.117  0.429-  16 1.86  12 1.86  28 1.91
  67  0.802  0.624  0.431-  48 1.88  60 1.88  44 1.88
  68  0.277  0.630  0.433-  36 1.83  52 1.85  40 1.91
  69  0.561  0.394  0.427-  28 1.86  24 1.87  40 1.90  44 2.52
 

IMPORTANT INFORMATION: All symmetrisations will be switched off!
NOSYMM: (Re-)initialisation of all symmetry stuff for point group C_1.

 
 

Automatic generation of k-mesh.
 generate k-points for:    3    3    1
Space group operators:
 irot       det(A)        alpha          n_x          n_y          n_z        tau_x        tau_y        tau_z
    1     1.000000     0.000001     1.000000     0.000000     0.000000     0.000000     0.000000     0.000000
 
 Subroutine IBZKPT returns following result:
 ===========================================
 
 Found      5 irreducible k-points:
 
 Following reciprocal coordinates:
            Coordinates               Weight
  0.000000  0.000000  0.000000      1.000000
  0.333333  0.000000  0.000000      2.000000
  0.000000  0.333333  0.000000      2.000000
  0.333333  0.333333  0.000000      2.000000
 -0.333333  0.333333  0.000000      2.000000
 
 Following cartesian coordinates:
            Coordinates               Weight
  0.000000  0.000000  0.000000      1.000000
  0.033570 -0.011869  0.000000      2.000000
  0.000000  0.035606  0.000000      2.000000
  0.033570  0.023738  0.000000      2.000000
 -0.033570  0.047475  0.000000      2.000000
 


--------------------------------------------------------------------------------------------------------




 Dimension of arrays:
   k-points           NKPTS =      5   k-points in BZ     NKDIM =      5   number of bands    NBANDS=    360
   number of dos      NEDOS =    301   number of ions     NIONS =     69
   non local maximal  LDIM  =      6   non local SUM 2l+1 LMDIM =     18
   total plane-waves  NPLWV = ******
   max r-space proj   IRMAX =   7948   max aug-charges    IRDMAX=  18812
   dimension x,y,z NGX =    80 NGY =   80 NGZ =  160
   dimension x,y,z NGXF=   160 NGYF=  160 NGZF=  320
   support grid    NGXF=   160 NGYF=  160 NGZF=  320
   ions per type =              64   5
   NGX,Y,Z   is equivalent  to a cutoff of  13.39, 13.39, 12.62 a.u.
   NGXF,Y,Z  is equivalent  to a cutoff of  26.79, 26.79, 25.24 a.u.

 SYSTEM =  SQS-NiFe                                
 POSCAR =  POSCAR                                  

 Startparameter for this run:
   NWRITE =      2    write-flag & timer
   PREC   = accura    normal or accurate (medium, high low for compatibility)
   ISTART =      1    job   : 0-new  1-cont  2-samecut
   ICHARG =      1    charge: 1-file 2-atom 10-const
   ISPIN  =      2    spin polarized calculation?
   LNONCOLLINEAR =      F non collinear calculations
   LSORBIT =      F    spin-orbit coupling
   INIWAV =      1    electr: 0-lowe 1-rand  2-diag
   LASPH  =      F    aspherical Exc in radial PAW
   METAGGA=      F    non-selfconsistent MetaGGA calc.

 Electronic Relaxation 1
   ENCUT  =  520.0 eV  38.22 Ry    6.18 a.u.  18.46 18.46 39.20*2*pi/ulx,y,z
   ENINI  =  520.0     initial cutoff
   ENAUG  =  605.4 eV  augmentation charge cutoff
   NELM   =    200;   NELMIN=  2; NELMDL=  0     # of ELM steps 
   EDIFF  = 0.1E-04   stopping-criterion for ELM
   LREAL  =      T    real-space projection
   NLSPLINE    = F    spline interpolate recip. space projectors
   LCOMPAT=      F    compatible to vasp.4.4
   GGA_COMPAT  = T    GGA compatible to vasp.4.4-vasp.4.6
   LMAXPAW     = -100 max onsite density
   LMAXMIX     =    2 max onsite mixed and CHGCAR
   VOSKOWN=      0    Vosko Wilk Nusair interpolation
   ROPT   =   -0.00025  -0.00025
 Ionic relaxation
   EDIFFG = -.5E-01   stopping-criterion for IOM
   NSW    =     99    number of steps for IOM
   NBLOCK =      1;   KBLOCK =     99    inner block; outer block 
   IBRION =      2    ionic relax: 0-MD 1-quasi-New 2-CG
   NFREE  =      1    steps in history (QN), initial steepest desc. (CG)
   ISIF   =      2    stress and relaxation
   IWAVPR =     11    prediction:  0-non 1-charg 2-wave 3-comb
   ISYM   =      0    0-nonsym 1-usesym 2-fastsym
   LCORR  =      T    Harris-Foulkes like correction to forces

   POTIM  = 0.5000    time-step for ionic-motion
   TEIN   =    0.0    initial temperature
   TEBEG  =    0.0;   TEEND  =   0.0 temperature during run
   SMASS  =  -3.00    Nose mass-parameter (am)
   estimated Nose-frequenzy (Omega)   =  0.10E-29 period in steps =****** mass=  -0.225E-26a.u.
   SCALEE = 1.0000    scale energy and forces
   NPACO  =    256;   APACO  = 16.0  distance and # of slots for P.C.
   PSTRESS=    0.0 pullay stress

  Mass of Ions in am
   POMASS =  55.85 16.00
  Ionic Valenz
   ZVAL   =   8.00  6.00
  Atomic Wigner-Seitz radii
   RWIGS  =  -1.00 -1.00
  virtual crystal weights 
   VCA    =   1.00  1.00
   NELECT =     542.0000    total number of electrons
   NUPDOWN=      -1.0000    fix difference up-down

 DOS related values:
   EMIN   =  10.00;   EMAX   =-10.00  energy-range for DOS
   EFERMI =   0.00
   ISMEAR =     1;   SIGMA  =   0.20  broadening in eV -4-tet -1-fermi 0-gaus

 Electronic relaxation 2 (details)
   IALGO  =     68    algorithm
   LDIAG  =      T    sub-space diagonalisation (order eigenvalues)
   LSUBROT=      F    optimize rotation matrix (better conditioning)
   TURBO    =      0    0=normal 1=particle mesh
   IRESTART =      0    0=no restart 2=restart with 2 vectors
   NREBOOT  =      0    no. of reboots
   NMIN     =      0    reboot dimension
   EREF     =   0.00    reference energy to select bands
   IMIX   =      4    mixing-type and parameters
     AMIX     =   0.40;   BMIX     =  1.00
     AMIX_MAG =   1.60;   BMIX_MAG =  1.00
     AMIN     =   0.10
     WC   =   100.;   INIMIX=   1;  MIXPRE=   1;  MAXMIX= -45

 Intra band minimization:
   WEIMIN = 0.0010     energy-eigenvalue tresh-hold
   EBREAK =  0.69E-08  absolut break condition
   DEPER  =   0.30     relativ break condition  

   TIME   =   0.40     timestep for ELM

  volume/ion in A,a.u.               =      28.40       191.65
  Fermi-wavevector in a.u.,A,eV,Ry     =   1.066648  2.015672 15.479864  1.137738
  Thomas-Fermi vector in A             =   2.202239
 
 Write flags
   LWAVE        =      T    write WAVECAR
   LDOWNSAMPLE  =      F    k-point downsampling of WAVECAR
   LCHARG       =      T    write CHGCAR
   LVTOT        =      F    write LOCPOT, total local potential
   LVHAR        =      F    write LOCPOT, Hartree potential only
   LELF         =      F    write electronic localiz. function (ELF)
   LORBIT       =     10    0 simple, 1 ext, 2 COOP (PROOUT), +10 PAW based schemes


 Dipole corrections
   LMONO  =      F    monopole corrections only (constant potential shift)
   LDIPOL =      T    correct potential (dipole corrections)
   IDIPOL =      3    1-x, 2-y, 3-z, 4-all directions 
   EPSILON=  1.0000000 bulk dielectric constant

 Exchange correlation treatment:
   GGA     =    --    GGA type
   LEXCH   =     8    internal setting for exchange type
   VOSKOWN=      0    Vosko Wilk Nusair interpolation
   LHFCALC =     F    Hartree Fock is set to
   LHFONE  =     F    Hartree Fock one center treatment
   AEXX    =    0.0000 exact exchange contribution

 Linear response parameters
   LEPSILON=     F    determine dielectric tensor
   LRPA    =     F    only Hartree local field effects (RPA)
   LNABLA  =     F    use nabla operator in PAW spheres
   LVEL    =     F    velocity operator in full k-point grid
   LINTERFAST=   F  fast interpolation
   KINTER  =     0    interpolate to denser k-point grid
   CSHIFT  =0.1000    complex shift for real part using Kramers Kronig
   OMEGAMAX=  -1.0    maximum frequency
   DEG_THRESHOLD= 0.2000000E-02 threshold for treating states as degnerate
   RTIME   =   -0.100 relaxation time in fs
  (WPLASMAI=    0.000 imaginary part of plasma frequency in eV, 0.658/RTIME)
   DFIELD  = 0.0000000 0.0000000 0.0000000 field for delta impulse in time
 
 Orbital magnetization related:
   ORBITALMAG=     F  switch on orbital magnetization
   LCHIMAG   =     F  perturbation theory with respect to B field
   DQ        =  0.001000  dq finite difference perturbation B field
   LLRAUG    =     F  two centre corrections for induced B field



--------------------------------------------------------------------------------------------------------


 conjugate gradient relaxation of ions
   using selective dynamics as specified on POSCAR
 charge density and potential will be updated during run
 spin polarized calculation
 RMM-DIIS sequential band-by-band and
  variant of blocked Davidson during initial phase
 perform sub-space diagonalisation
    before iterative eigenvector-optimisation
 modified Broyden-mixing scheme, WC =      100.0
 initial mixing is a Kerker type mixing with AMIX =  0.4000 and BMIX =      1.0000
 Hartree-type preconditioning will be used
 using additional bands           89
 real space projection scheme for non local part
 use partial core corrections
 calculate Harris-corrections to forces 
   (improved forces if not selfconsistent)
 use gradient corrections 
 use of overlap-Matrix (Vanderbilt PP)
 Methfessel and Paxton  Order N= 1 SIGMA  =   0.20


--------------------------------------------------------------------------------------------------------


  energy-cutoff  :      520.00
  volume of cell :     1959.57
      direct lattice vectors                 reciprocal lattice vectors
     9.929500000  0.000000000  0.000000000     0.100710006 -0.035606363  0.000000000
     3.309833230  9.361622420  0.000000000     0.000000000  0.106819091  0.000000000
     0.000000000  0.000000000 21.080550000     0.000000000  0.000000000  0.047437092

  length of vectors
     9.929500000  9.929500005 21.080550000     0.106819091  0.106819091  0.047437092


 
 old parameters found on file WAVECAR:
  energy-cutoff  :      520.00
  volume of cell :     1959.57
      direct lattice vectors                 reciprocal lattice vectors
     9.929500000  0.000000000  0.000000000     0.100710006 -0.035606363  0.000000000
     3.309833230  9.361622420  0.000000000     0.000000000  0.106819091  0.000000000
     0.000000000  0.000000000 21.080550000     0.000000000  0.000000000  0.047437092

  length of vectors

 
 k-points in units of 2pi/SCALE and weight: read from INCAR                         
   0.00000000  0.00000000  0.00000000       0.111
   0.03357000 -0.01186879  0.00000000       0.222
   0.00000000  0.03560636  0.00000000       0.222
   0.03357000  0.02373758  0.00000000       0.222
  -0.03357000  0.04747515  0.00000000       0.222
 
 k-points in reciprocal lattice and weights: read from INCAR                         
   0.00000000  0.00000000  0.00000000       0.111
   0.33333333  0.00000000  0.00000000       0.222
   0.00000000  0.33333333  0.00000000       0.222
   0.33333333  0.33333333  0.00000000       0.222
  -0.33333333  0.33333333  0.00000000       0.222
 
 position of ions in fractional coordinates (direct lattice) 
   0.08738900  0.16261100  0.09487400
   0.08938215  0.16142015  0.28487454
   0.21238900  0.03761100  0.19102200
   0.21365050  0.03372685  0.37563527
   0.33738900  0.16261100  0.09487400
   0.33934123  0.16382977  0.28499172
   0.46238900  0.03761100  0.19102200
   0.46468635  0.04512834  0.37980038
   0.58738900  0.16261100  0.09487400
   0.58949037  0.16139528  0.28618328
   0.71238900  0.03761100  0.19102200
   0.71602988  0.02703252  0.37744437
   0.83738900  0.16261100  0.09487400
   0.83945677  0.16066424  0.28456684
   0.96238900  0.03761100  0.19102200
   0.96907066  0.03272388  0.37843559
   0.08738900  0.41261100  0.09487400
   0.08685697  0.41149764  0.28531766
   0.21238900  0.28761100  0.19102200
   0.21214134  0.28792248  0.37975744
   0.33738900  0.41261100  0.09487400
   0.33513469  0.41556850  0.28531212
   0.46238900  0.28761100  0.19102200
   0.46076360  0.29852582  0.38032104
   0.58738900  0.41261100  0.09487400
   0.58595024  0.41207593  0.28668873
   0.71238900  0.28761100  0.19102200
   0.71925307  0.28412508  0.38063471
   0.83738900  0.41261100  0.09487400
   0.83672229  0.41134884  0.28526309
   0.96238900  0.28761100  0.19102200
   0.96758504  0.28446836  0.37567286
   0.08738900  0.66261100  0.09487400
   0.08758568  0.66066502  0.28399862
   0.21238900  0.53761100  0.19102200
   0.19890566  0.53717205  0.37694080
   0.33738900  0.66261100  0.09487400
   0.33673569  0.66182022  0.28246105
   0.46238900  0.53761100  0.19102200
   0.44859502  0.56128588  0.38398778
   0.58738900  0.66261100  0.09487400
   0.58771112  0.65878687  0.28522860
   0.71238900  0.53761100  0.19102200
   0.70526133  0.53273154  0.37835983
   0.83738900  0.66261100  0.09487400
   0.83681677  0.66154210  0.28434174
   0.96238900  0.53761100  0.19102200
   0.96048840  0.53310120  0.37942058
   0.08738900  0.91261100  0.09487400
   0.08937370  0.91109169  0.28497043
   0.21238900  0.78761100  0.19102200
   0.22505047  0.78630864  0.37997205
   0.33738900  0.91261100  0.09487400
   0.33472940  0.91456947  0.28305739
   0.46238900  0.78761100  0.19102200
   0.45932307  0.79906526  0.37292563
   0.58738900  0.91261100  0.09487400
   0.58656218  0.91161133  0.28658522
   0.71238900  0.78761100  0.19102200
   0.71571540  0.78456913  0.37908841
   0.83738900  0.91261100  0.09487400
   0.83719963  0.91123330  0.28412447
   0.96238900  0.78761100  0.19102200
   0.96436654  0.78719020  0.37273031
   0.36877158  0.19963006  0.43153822
   0.81105712  0.11701691  0.42948279
   0.80151780  0.62434307  0.43051572
   0.27735167  0.62985388  0.43320601
   0.56141811  0.39362696  0.42748023
 
 position of ions in cartesian coordinates  (Angst):
   1.40594437  1.52230278  1.99999610
   1.42179381  1.51115454  6.00531202
   2.23340271  0.35209998  4.02684882
   2.23307286  0.31573800  7.91859803
   3.88831937  1.52230278  1.99999610
   3.91173799  1.53371243  6.00778220
   4.71577771  0.35209998  4.02684882
   4.76347042  0.42247443  8.00640083
   6.37069437  1.52230278  1.99999610
   6.38753608  1.51092171  6.03290101
   7.19815271  0.35209998  4.02684882
   7.19929186  0.25306824  7.95673496
   8.85306937  1.52230278  1.99999610
   8.86715788  1.50407798  5.99882546
   9.68052771  0.35209998  4.02684882
   9.73069771  0.30634861  7.97763040
   2.23340267  3.86270839  1.99999610
   2.22443484  3.85228556  6.01465315
   3.06086102  2.69250559  4.02684882
   3.05943278  2.69542150  8.00549571
   4.71577767  3.86270839  1.99999610
   4.70318232  3.89039542  6.01453634
   5.54323602  2.69250559  4.02684882
   5.56322286  2.79468599  8.01737662
   7.19815267  3.86270839  1.99999610
   7.18209553  3.85769930  6.04355605
   8.02561102  2.69250559  4.02684882
   8.08223002  2.65987170  8.02398895
   9.68052767  3.86270839  1.99999610
   9.66973004  3.85089255  6.01350283
  10.50798602  2.69250559  4.02684882
  10.54917850  2.66308534  7.91939045
   3.06086098  6.20311399  1.99999610
   3.05637306  6.18489643  5.98684712
   3.88831933  5.03291119  4.02684882
   3.75298372  5.02880195  7.94611933
   5.54323598  6.20311399  1.99999610
   5.53413153  6.19571097  5.95443419
   6.37069433  5.03291119  4.02684882
   6.31208691  5.25454648  8.09467362
   8.02561098  6.20311399  1.99999610
   8.01615223  6.16731394  6.01277575
   8.85306933  5.03291119  4.02684882
   8.76614498  4.98723156  7.97603324
  10.50798598  6.20311399  1.99999610
  10.49876621  6.19310740  5.99408024
  11.33544433  5.03291119  4.02684882
  11.30164557  4.99069211  7.99839453
   3.88831929  8.54351960  1.99999610
   3.90299775  8.52929642  6.00733337
   4.71577764  7.37331680  4.02684882
   4.83718906  7.36112455  8.01001974
   6.37069429  8.54351960  1.99999610
   6.35076800  8.56185401  5.96700556
   7.19815264  7.37331680  4.02684882
   7.20562118  7.48054726  7.86147734
   8.85306929  8.54351960  1.99999610
   8.84155069  8.53416110  6.04137405
   9.68052764  7.37331680  4.02684882
   9.70348901  7.34483997  7.99139221
  11.33544429  8.54351960  1.99999610
  11.32900395  8.53062205  5.98950008
  12.16290264  7.37331680  4.02684882
  12.18114588  7.36937746  7.85736004
   4.32245964  1.86886128  9.09706292
   8.44069811  1.09546809  9.05373347
  10.02514242  5.84486410  9.07550816
   4.83867473  5.89645421  9.13222098
   6.87744073  3.68498695  9.01151838
 


--------------------------------------------------------------------------------------------------------


 k-point  1 :   0.0000 0.0000 0.0000  plane waves:   52797
 k-point  2 :   0.3333 0.0000 0.0000  plane waves:   52741
 k-point  3 :   0.0000 0.3333 0.0000  plane waves:   52741
 k-point  4 :   0.3333 0.3333 0.0000  plane waves:   52754
 k-point  5 :  -0.3333 0.3333 0.0000  plane waves:   52703

 maximum and minimum number of plane-waves per node :      2214     2178

 maximum number of plane-waves:     52797
 maximum index in each direction: 
   IXMAX=   18   IYMAX=   18   IZMAX=   39
   IXMIN=  -18   IYMIN=  -18   IZMIN=  -39


 real space projection operators:
  total allocation   :      69723.58 KBytes
  max/ min on nodes  :       3512.30       2569.16


 parallel 3D FFT for wavefunctions:
    minimum data exchange during FFTs selected (reduces bandwidth)
 parallel 3D FFT for charge:
    minimum data exchange during FFTs selected (reduces bandwidth)


 total amount of memory used by VASP MPI-rank0   110025. kBytes
=======================================================================

   base      :      30000. kBytes
   nonlr-proj:      13531. kBytes
   fftplans  :       6401. kBytes
   grid      :      16455. kBytes
   one-center:         93. kBytes
   wavefun   :      43545. kBytes
 
     INWAV:  cpu time   10.2913: real time   10.5904
 Broyden mixing: mesh for mixing (old mesh)
   NGX = 37   NGY = 37   NGZ = 79
  (NGX  =160   NGY  =160   NGZ  =320)
  gives a total of 108151 points

 initial charge density was supplied:
 number of electron     542.0000172 magnetization     138.8753165
 keeping initial charge density in first step


--------------------------------------------------------------------------------------------------------


 Maximum index for non-local projection operator          800
 Maximum index for augmentation-charges         1218 (set IRDMAX)


--------------------------------------------------------------------------------------------------------


 First call to EWALD:  gamma=   0.142
 Maximum number of real-space cells 4x 4x 2
 Maximum number of reciprocal cells 2x 2x 4

    FEWALD:  cpu time    0.0035: real time    0.0035


--------------------------------------- Iteration      1(   1)  ---------------------------------------


    POTLOK:  cpu time    0.4115: real time    0.4202
    SETDIJ:  cpu time    0.0246: real time    0.0246
     EDDAV:  cpu time   34.7498: real time   34.7701
       DOS:  cpu time    0.0095: real time    0.0095
    CHARGE:  cpu time    1.1969: real time    1.1971
    MIXING:  cpu time    0.0064: real time    0.0064
    --------------------------------------------
      LOOP:  cpu time   36.3997: real time   36.4281

 eigenvalue-minimisations  :  7812
 total energy-change (2. order) :-0.5297242E+03  (-0.1031374E+03)
 number of electron     542.0000172 magnetization     138.7199237
 augmentation part      271.3616862 magnetization     111.2982016

 DIPCOR: dipole corrections for dipol
 direction  3 min pos   245,
 dipolmoment           0.000000      0.000000      0.298872 electrons x Angstroem
 Tr[quadrupol]     -8923.829536

 energy correction for charged system         0.000000 eV
 dipol+quadrupol energy correction           -0.004125 eV
 added-field ion interaction          4.593249 eV  (added to PSCEN)


 Broyden mixing:
  rms(total) = 0.57096E+00    rms(broyden)= 0.57093E+00
  rms(prec ) = 0.57860E+00
  weight for this iteration     100.00

 Free energy of the ion-electron system (eV)
  ---------------------------------------------------
  alpha Z        PSCENC =      1565.91984594
  Ewald energy   TEWEN  =    149854.26998864
  -Hartree energ DENC   =   -190179.97191089
  -exchange      EXHF   =         0.00000000
  -V(xc)+E(xc)   XCENC  =       417.27071177
  PAW double counting   =     47597.38003561   -48188.24212808
  entropy T*S    EENTRO =         0.09337602
  eigenvalues    EBANDS =     -1794.24560178
  atomic energy  EATOM  =     40197.80149763
  Solvation  Ediel_sol  =         0.00000000
  ---------------------------------------------------
  free energy    TOTEN  =      -529.72418514 eV

  energy without entropy =     -529.81756116  energy(sigma->0) =     -529.75531048


--------------------------------------------------------------------------------------------------------




--------------------------------------- Iteration      1(   2)  ---------------------------------------


    POTLOK:  cpu time    0.4145: real time    0.4255
    SETDIJ:  cpu time    0.0245: real time    0.0245
    EDDIAG:  cpu time    4.8335: real time    4.8356
  RMM-DIIS:  cpu time   17.8755: real time   17.8894
    ORTHCH:  cpu time    1.3025: real time    1.3026
       DOS:  cpu time    0.0082: real time    0.0082
    CHARGE:  cpu time    1.1886: real time    1.1888
    MIXING:  cpu time    0.0064: real time    0.0064
    --------------------------------------------
      LOOP:  cpu time   25.6538: real time   25.6811

 eigenvalue-minimisations  :  7321
 total energy-change (2. order) :-0.7724281E+01  (-0.7120741E+01)
 number of electron     542.0000173 magnetization     138.6165824
 augmentation part      268.7300770 magnetization     111.5374029

 DIPCOR: dipole corrections for dipol
 direction  3 min pos   249,
 dipolmoment           0.000000      0.000000      0.372388 electrons x Angstroem
 Tr[quadrupol]     -8924.040097

 energy correction for charged system         0.000000 eV
 dipol+quadrupol energy correction           -0.006403 eV
 added-field ion interaction         10.634745 eV  (added to PSCEN)


 Broyden mixing:
  rms(total) = 0.11059E+01    rms(broyden)= 0.11059E+01
  rms(prec ) = 0.12478E+01
  weight for this iteration     100.00

 eigenvalues of (default mixing * dielectric matrix)
  average eigenvalue GAMMA=   0.3185
  0.3185

 Free energy of the ion-electron system (eV)
  ---------------------------------------------------
  alpha Z        PSCENC =      1571.95906311
  Ewald energy   TEWEN  =    149854.26998864
  -Hartree energ DENC   =   -190203.92076719
  -exchange      EXHF   =         0.00000000
  -V(xc)+E(xc)   XCENC  =       417.02906570
  PAW double counting   =     47784.81465108   -48385.09667886
  entropy T*S    EENTRO =         0.09991836
  eigenvalues    EBANDS =     -1774.40520488
  atomic energy  EATOM  =     40197.80149763
  Solvation  Ediel_sol  =         0.00000000
  ---------------------------------------------------
  free energy    TOTEN  =      -537.44846641 eV

  energy without entropy =     -537.54838477  energy(sigma->0) =     -537.48177253


--------------------------------------------------------------------------------------------------------




--------------------------------------- Iteration      1(   3)  ---------------------------------------


    POTLOK:  cpu time    0.4230: real time    0.4235
    SETDIJ:  cpu time    0.0242: real time    0.0242
    EDDIAG:  cpu time    4.8328: real time    4.8339
  RMM-DIIS:  cpu time   20.6530: real time   20.6640
    ORTHCH:  cpu time    1.3007: real time    1.3009
       DOS:  cpu time    0.0083: real time    0.0083
    CHARGE:  cpu time    1.1913: real time    1.1914
    MIXING:  cpu time    0.0064: real time    0.0064
    --------------------------------------------
      LOOP:  cpu time   28.4390: real time   28.4527

 eigenvalue-minimisations  :  8585
 total energy-change (2. order) :-0.3378462E+01  (-0.1818845E+01)
 number of electron     542.0000164 magnetization     138.6225905
 augmentation part      269.6232876 magnetization     108.7080516

 DIPCOR: dipole corrections for dipol
 direction  3 min pos   245,
 dipolmoment           0.000000      0.000000      0.018149 electrons x Angstroem
 Tr[quadrupol]     -8923.752083

 energy correction for charged system         0.000000 eV
 dipol+quadrupol energy correction           -0.000015 eV
 added-field ion interaction          0.278929 eV  (added to PSCEN)


 Broyden mixing:
  rms(total) = 0.19847E+01    rms(broyden)= 0.19846E+01
  rms(prec ) = 0.28224E+01
  weight for this iteration     100.00

 eigenvalues of (default mixing * dielectric matrix)
  average eigenvalue GAMMA=   0.1965
  0.3220  0.0709

 Free energy of the ion-electron system (eV)
  ---------------------------------------------------
  alpha Z        PSCENC =      1561.60963610
  Ewald energy   TEWEN  =    149854.26998864
  -Hartree energ DENC   =   -190195.92647339
  -exchange      EXHF   =         0.00000000
  -V(xc)+E(xc)   XCENC  =       416.40371039
  PAW double counting   =     47751.43668333   -48348.22740652
  entropy T*S    EENTRO =        -0.00093306
  eigenvalues    EBANDS =     -1778.19363178
  atomic energy  EATOM  =     40197.80149763
  Solvation  Ediel_sol  =         0.00000000
  ---------------------------------------------------
  free energy    TOTEN  =      -540.82692866 eV

  energy without entropy =     -540.82599560  energy(sigma->0) =     -540.82661764


--------------------------------------------------------------------------------------------------------




--------------------------------------- Iteration      1(   4)  ---------------------------------------


    POTLOK:  cpu time    0.4149: real time    0.4255
    SETDIJ:  cpu time    0.0242: real time    0.0242
    EDDIAG:  cpu time    4.8256: real time    4.8267
  RMM-DIIS:  cpu time   19.9300: real time   19.9407
    ORTHCH:  cpu time    1.3055: real time    1.3056
       DOS:  cpu time    0.0086: real time    0.0086
    CHARGE:  cpu time    1.1886: real time    1.1888
    MIXING:  cpu time    0.0066: real time    0.0066
    --------------------------------------------
      LOOP:  cpu time   27.7040: real time   27.7268

 eigenvalue-minimisations  :  8244
 total energy-change (2. order) : 0.1965167E+01  (-0.3730517E+00)
 number of electron     542.0000171 magnetization     138.5831667
 augmentation part      268.7985155 magnetization     111.2143410

 DIPCOR: dipole corrections for dipol
 direction  3 min pos   242,
 dipolmoment           0.000000      0.000000      0.367520 electrons x Angstroem
 Tr[quadrupol]     -8923.954582

 energy correction for charged system         0.000000 eV
 dipol+quadrupol energy correction           -0.006237 eV
 added-field ion interaction          2.012672 eV  (added to PSCEN)


 Broyden mixing:
  rms(total) = 0.65011E+00    rms(broyden)= 0.64997E+00
  rms(prec ) = 0.77815E+00
  weight for this iteration     100.00

 eigenvalues of (default mixing * dielectric matrix)
  average eigenvalue GAMMA=   0.1837
  0.2451  0.2451  0.0609

 Free energy of the ion-electron system (eV)
  ---------------------------------------------------
  alpha Z        PSCENC =      1563.33715698
  Ewald energy   TEWEN  =    149854.26998864
  -Hartree energ DENC   =   -190199.23297412
  -exchange      EXHF   =         0.00000000
  -V(xc)+E(xc)   XCENC  =       416.16403533
  PAW double counting   =     47744.53638402   -48340.31165115
  entropy T*S    EENTRO =         0.11207852
  eigenvalues    EBANDS =     -1775.53827709
  atomic energy  EATOM  =     40197.80149763
  Solvation  Ediel_sol  =         0.00000000
  ---------------------------------------------------
  free energy    TOTEN  =      -538.86176124 eV

  energy without entropy =     -538.97383976  energy(sigma->0) =     -538.89912075


--------------------------------------------------------------------------------------------------------




--------------------------------------- Iteration      1(   5)  ---------------------------------------


    POTLOK:  cpu time    0.4138: real time    0.4242
    SETDIJ:  cpu time    0.0243: real time    0.0243
    EDDIAG:  cpu time    4.8215: real time    4.8225
  RMM-DIIS:  cpu time   20.0146: real time   20.0292
    ORTHCH:  cpu time    1.2992: real time    1.2993
       DOS:  cpu time    0.0081: real time    0.0081
    CHARGE:  cpu time    1.1867: real time    1.1869
    MIXING:  cpu time    0.0066: real time    0.0066
    --------------------------------------------
      LOOP:  cpu time   27.7748: real time   27.8011

 eigenvalue-minimisations  :  8278
 total energy-change (2. order) : 0.1580010E+00  (-0.1026842E+00)
 number of electron     542.0000171 magnetization     138.5127699
 augmentation part      269.1162304 magnetization     110.7111029

 DIPCOR: dipole corrections for dipol
 direction  3 min pos   239,
 dipolmoment           0.000000      0.000000      0.287926 electrons x Angstroem
 Tr[quadrupol]     -8923.488364

 energy correction for charged system         0.000000 eV
 dipol+quadrupol energy correction           -0.003828 eV
 added-field ion interaction         -1.271452 eV  (added to PSCEN)


 Broyden mixing:
  rms(total) = 0.37107E+00    rms(broyden)= 0.37105E+00
  rms(prec ) = 0.38979E+00
  weight for this iteration     100.00

 eigenvalues of (default mixing * dielectric matrix)
  average eigenvalue GAMMA=   0.2924
  0.4836  0.4836  0.0590  0.1433

 Free energy of the ion-electron system (eV)
  ---------------------------------------------------
  alpha Z        PSCENC =      1560.05544137
  Ewald energy   TEWEN  =    149854.26998864
  -Hartree energ DENC   =   -190186.67415634
  -exchange      EXHF   =         0.00000000
  -V(xc)+E(xc)   XCENC  =       415.88182903
  PAW double counting   =     47727.07181156   -48321.69769894
  entropy T*S    EENTRO =         0.07015057
  eigenvalues    EBANDS =     -1785.48262378
  atomic energy  EATOM  =     40197.80149763
  Solvation  Ediel_sol  =         0.00000000
  ---------------------------------------------------
  free energy    TOTEN  =      -538.70376027 eV

  energy without entropy =     -538.77391084  energy(sigma->0) =     -538.72714380


--------------------------------------------------------------------------------------------------------




--------------------------------------- Iteration      1(   6)  ---------------------------------------


    POTLOK:  cpu time    0.4143: real time    0.4267
    SETDIJ:  cpu time    0.0242: real time    0.0242
    EDDIAG:  cpu time    4.8166: real time    4.8175
  RMM-DIIS:  cpu time   19.5473: real time   19.5536
    ORTHCH:  cpu time    1.2995: real time    1.3059
       DOS:  cpu time    0.0085: real time    0.0085
    CHARGE:  cpu time    1.1858: real time    1.1859
    MIXING:  cpu time    0.0068: real time    0.0068
    --------------------------------------------
      LOOP:  cpu time   27.3029: real time   27.3291

 eigenvalue-minimisations  :  8074
 total energy-change (2. order) : 0.8560309E-02  (-0.4945796E-01)
 number of electron     542.0000172 magnetization     138.4848091
 augmentation part      269.3934726 magnetization     110.7146912

 DIPCOR: dipole corrections for dipol
 direction  3 min pos   231,
 dipolmoment           0.000000      0.000000      0.310224 electrons x Angstroem
 Tr[quadrupol]     -8923.125329

 energy correction for charged system         0.000000 eV
 dipol+quadrupol energy correction           -0.004444 eV
 added-field ion interaction         -9.553418 eV  (added to PSCEN)


 Broyden mixing:
  rms(total) = 0.35551E+00    rms(broyden)= 0.35550E+00
  rms(prec ) = 0.38991E+00
  weight for this iteration     100.00

 eigenvalues of (default mixing * dielectric matrix)
  average eigenvalue GAMMA=   0.2819
  0.5206  0.5206  0.0586  0.1321  0.1775

 Free energy of the ion-electron system (eV)
  ---------------------------------------------------
  alpha Z        PSCENC =      1551.77286023
  Ewald energy   TEWEN  =    149854.26998864
  -Hartree energ DENC   =   -190180.08644965
  -exchange      EXHF   =         0.00000000
  -V(xc)+E(xc)   XCENC  =       415.86787507
  PAW double counting   =     47688.13656605   -48280.74435978
  entropy T*S    EENTRO =         0.07807346
  eigenvalues    EBANDS =     -1785.79125162
  atomic energy  EATOM  =     40197.80149763
  Solvation  Ediel_sol  =         0.00000000
  ---------------------------------------------------
  free energy    TOTEN  =      -538.69519996 eV

  energy without entropy =     -538.77327343  energy(sigma->0) =     -538.72122445


--------------------------------------------------------------------------------------------------------




--------------------------------------- Iteration      1(   7)  ---------------------------------------


    POTLOK:  cpu time    0.4134: real time    0.4257
    SETDIJ:  cpu time    0.0242: real time    0.0242
    EDDIAG:  cpu time    4.8372: real time    4.8383
  RMM-DIIS:  cpu time   18.9599: real time   18.9659
    ORTHCH:  cpu time    1.3059: real time    1.3060
       DOS:  cpu time    0.0087: real time    0.0087
    CHARGE:  cpu time    1.1876: real time    1.1878
    MIXING:  cpu time    0.0071: real time    0.0071
    --------------------------------------------
      LOOP:  cpu time   26.7441: real time   26.7636

 eigenvalue-minimisations  :  7817
 total energy-change (2. order) : 0.2840992E-01  (-0.2350068E-01)
 number of electron     542.0000171 magnetization     138.4291754
 augmentation part      269.4965211 magnetization     110.6792181

 DIPCOR: dipole corrections for dipol
 direction  3 min pos   229,
 dipolmoment           0.000000      0.000000      0.299363 electrons x Angstroem
 Tr[quadrupol]     -8923.107414

 energy correction for charged system         0.000000 eV
 dipol+quadrupol energy correction           -0.004138 eV
 added-field ion interaction        -11.193195 eV  (added to PSCEN)


 Broyden mixing:
  rms(total) = 0.22244E+00    rms(broyden)= 0.22244E+00
  rms(prec ) = 0.22964E+00
  weight for this iteration     100.00

 eigenvalues of (default mixing * dielectric matrix)
  average eigenvalue GAMMA=   0.3430
  0.6641  0.6641  0.4009  0.0587  0.1523  0.1178

 Free energy of the ion-electron system (eV)
  ---------------------------------------------------
  alpha Z        PSCENC =      1550.13338906
  Ewald energy   TEWEN  =    149854.26998864
  -Hartree energ DENC   =   -190180.02348351
  -exchange      EXHF   =         0.00000000
  -V(xc)+E(xc)   XCENC  =       415.85233727
  PAW double counting   =     47674.66627759   -48266.74377053
  entropy T*S    EENTRO =         0.07921435
  eigenvalues    EBANDS =     -1784.70224054
  atomic energy  EATOM  =     40197.80149763
  Solvation  Ediel_sol  =         0.00000000
  ---------------------------------------------------
  free energy    TOTEN  =      -538.66679004 eV

  energy without entropy =     -538.74600439  energy(sigma->0) =     -538.69319483


--------------------------------------------------------------------------------------------------------




--------------------------------------- Iteration      1(   8)  ---------------------------------------


    POTLOK:  cpu time    0.4147: real time    0.4261
    SETDIJ:  cpu time    0.0242: real time    0.0242
    EDDIAG:  cpu time    4.8391: real time    4.8455
  RMM-DIIS:  cpu time   20.0627: real time   20.0693
    ORTHCH:  cpu time    1.3056: real time    1.3058
       DOS:  cpu time    0.0084: real time    0.0084
    CHARGE:  cpu time    1.1850: real time    1.1852
    MIXING:  cpu time    0.0071: real time    0.0071
    --------------------------------------------
      LOOP:  cpu time   27.8468: real time   27.8716

 eigenvalue-minimisations  :  8312
 total energy-change (2. order) : 0.1162079E-02  (-0.1364005E-01)
 number of electron     542.0000171 magnetization     138.3742120
 augmentation part      269.5705766 magnetization     110.6172359

 DIPCOR: dipole corrections for dipol
 direction  3 min pos   230,
 dipolmoment           0.000000      0.000000      0.298060 electrons x Angstroem
 Tr[quadrupol]     -8923.181093

 energy correction for charged system         0.000000 eV
 dipol+quadrupol energy correction           -0.004102 eV
 added-field ion interaction        -10.161640 eV  (added to PSCEN)


 Broyden mixing:
  rms(total) = 0.22271E+00    rms(broyden)= 0.22271E+00
  rms(prec ) = 0.23436E+00
  weight for this iteration     100.00

 eigenvalues of (default mixing * dielectric matrix)
  average eigenvalue GAMMA=   0.3572
  0.7838  0.7838  0.4437  0.0587  0.1675  0.1503  0.1125

 Free energy of the ion-electron system (eV)
  ---------------------------------------------------
  alpha Z        PSCENC =      1551.16497988
  Ewald energy   TEWEN  =    149854.26998864
  -Hartree energ DENC   =   -190180.36482130
  -exchange      EXHF   =         0.00000000
  -V(xc)+E(xc)   XCENC  =       415.87232578
  PAW double counting   =     47655.48943922   -48247.12946785
  entropy T*S    EENTRO =         0.08012020
  eigenvalues    EBANDS =     -1785.84969016
  atomic energy  EATOM  =     40197.80149763
  Solvation  Ediel_sol  =         0.00000000
  ---------------------------------------------------
  free energy    TOTEN  =      -538.66562796 eV

  energy without entropy =     -538.74574816  energy(sigma->0) =     -538.69233470


--------------------------------------------------------------------------------------------------------




--------------------------------------- Iteration      1(   9)  ---------------------------------------


    POTLOK:  cpu time    0.4135: real time    0.4246
    SETDIJ:  cpu time    0.0241: real time    0.0241
    EDDIAG:  cpu time    4.8501: real time    4.8568
  RMM-DIIS:  cpu time   18.4385: real time   18.4457
    ORTHCH:  cpu time    1.3036: real time    1.3037
       DOS:  cpu time    0.0085: real time    0.0085
    CHARGE:  cpu time    1.1843: real time    1.1845
    MIXING:  cpu time    0.0075: real time    0.0075
    --------------------------------------------
      LOOP:  cpu time   26.2301: real time   26.2553

 eigenvalue-minimisations  :  7594
 total energy-change (2. order) : 0.1335909E-01  (-0.7077938E-02)
 number of electron     542.0000171 magnetization     138.3139347
 augmentation part      269.5785705 magnetization     110.5646346

 DIPCOR: dipole corrections for dipol
 direction  3 min pos   233,
 dipolmoment           0.000000      0.000000      0.303885 electrons x Angstroem
 Tr[quadrupol]     -8923.353870

 energy correction for charged system         0.000000 eV
 dipol+quadrupol energy correction           -0.004264 eV
 added-field ion interaction         -7.354136 eV  (added to PSCEN)


 Broyden mixing:
  rms(total) = 0.16480E+00    rms(broyden)= 0.16480E+00
  rms(prec ) = 0.17264E+00
  weight for this iteration     100.00

 eigenvalues of (default mixing * dielectric matrix)
  average eigenvalue GAMMA=   0.3814
  0.9104  0.9104  0.3826  0.3826  0.0587  0.1617  0.1328  0.1119

 Free energy of the ion-electron system (eV)
  ---------------------------------------------------
  alpha Z        PSCENC =      1553.97232217
  Ewald energy   TEWEN  =    149854.26998864
  -Hartree energ DENC   =   -190181.82742258
  -exchange      EXHF   =         0.00000000
  -V(xc)+E(xc)   XCENC  =       415.94047048
  PAW double counting   =     47638.71065143   -48230.03171242
  entropy T*S    EENTRO =         0.07969100
  eigenvalues    EBANDS =     -1787.56775523
  atomic energy  EATOM  =     40197.80149763
  Solvation  Ediel_sol  =         0.00000000
  ---------------------------------------------------
  free energy    TOTEN  =      -538.65226887 eV

  energy without entropy =     -538.73195988  energy(sigma->0) =     -538.67883254


--------------------------------------------------------------------------------------------------------




--------------------------------------- Iteration      1(  10)  ---------------------------------------


    POTLOK:  cpu time    0.4147: real time    0.4261
    SETDIJ:  cpu time    0.0242: real time    0.0242
    EDDIAG:  cpu time    4.8444: real time    4.8457
  RMM-DIIS:  cpu time   18.4015: real time   18.4125
    ORTHCH:  cpu time    1.3020: real time    1.3021
       DOS:  cpu time    0.0082: real time    0.0082
    CHARGE:  cpu time    1.1829: real time    1.1830
    MIXING:  cpu time    0.0075: real time    0.0075
    --------------------------------------------
      LOOP:  cpu time   26.1854: real time   26.2092

 eigenvalue-minimisations  :  7562
 total energy-change (2. order) : 0.1911364E-02  (-0.5062310E-02)
 number of electron     542.0000171 magnetization     138.1209203
 augmentation part      269.6062071 magnetization     110.3836034

 DIPCOR: dipole corrections for dipol
 direction  3 min pos   238,
 dipolmoment           0.000000      0.000000      0.304578 electrons x Angstroem
 Tr[quadrupol]     -8923.606102

 energy correction for charged system         0.000000 eV
 dipol+quadrupol energy correction           -0.004284 eV
 added-field ion interaction         -2.349303 eV  (added to PSCEN)


 Broyden mixing:
  rms(total) = 0.15886E+00    rms(broyden)= 0.15885E+00
  rms(prec ) = 0.16936E+00
  weight for this iteration     100.00

 eigenvalues of (default mixing * dielectric matrix)
  average eigenvalue GAMMA=   0.4462
  1.1624  1.1624  0.5343  0.5343  0.0587  0.1728  0.1505  0.1311  0.1097

 Free energy of the ion-electron system (eV)
  ---------------------------------------------------
  alpha Z        PSCENC =      1558.97713553
  Ewald energy   TEWEN  =    149854.26998864
  -Hartree energ DENC   =   -190183.09294670
  -exchange      EXHF   =         0.00000000
  -V(xc)+E(xc)   XCENC  =       415.97179167
  PAW double counting   =     47622.37870712   -48213.30255911
  entropy T*S    EENTRO =         0.07812372
  eigenvalues    EBANDS =     -1791.73209601
  atomic energy  EATOM  =     40197.80149763
  Solvation  Ediel_sol  =         0.00000000
  ---------------------------------------------------
  free energy    TOTEN  =      -538.65035751 eV

  energy without entropy =     -538.72848123  energy(sigma->0) =     -538.67639875


--------------------------------------------------------------------------------------------------------




--------------------------------------- Iteration      1(  11)  ---------------------------------------


    POTLOK:  cpu time    0.4159: real time    0.4278
    SETDIJ:  cpu time    0.0243: real time    0.0243
    EDDIAG:  cpu time    4.8433: real time    4.8450
  RMM-DIIS:  cpu time   18.1888: real time   18.1992
    ORTHCH:  cpu time    1.3043: real time    1.3045
       DOS:  cpu time    0.0086: real time    0.0086
    CHARGE:  cpu time    1.1900: real time    1.1901
    MIXING:  cpu time    0.0078: real time    0.0078
    --------------------------------------------
      LOOP:  cpu time   25.9831: real time   26.0073

 eigenvalue-minimisations  :  7495
 total energy-change (2. order) : 0.1983226E-01  (-0.4175606E-02)
 number of electron     542.0000171 magnetization     138.0383166
 augmentation part      269.7269923 magnetization     110.3202199

 DIPCOR: dipole corrections for dipol
 direction  3 min pos   241,
 dipolmoment           0.000000      0.000000      0.306887 electrons x Angstroem
 Tr[quadrupol]     -8923.799695

 energy correction for charged system         0.000000 eV
 dipol+quadrupol energy correction           -0.004349 eV
 added-field ion interaction          0.668689 eV  (added to PSCEN)


 Broyden mixing:
  rms(total) = 0.92771E-01    rms(broyden)= 0.92768E-01
  rms(prec ) = 0.10066E+00
  weight for this iteration     100.00

 eigenvalues of (default mixing * dielectric matrix)
  average eigenvalue GAMMA=   0.4494
  1.2372  1.2372  0.5641  0.5641  0.2703  0.0587  0.1818  0.1464  0.1247  0.1095

 Free energy of the ion-electron system (eV)
  ---------------------------------------------------
  alpha Z        PSCENC =      1561.99506177
  Ewald energy   TEWEN  =    149854.26998864
  -Hartree energ DENC   =   -190184.12253748
  -exchange      EXHF   =         0.00000000
  -V(xc)+E(xc)   XCENC  =       416.01610086
  PAW double counting   =     47573.67697156   -48163.28750247
  entropy T*S    EENTRO =         0.07698583
  eigenvalues    EBANDS =     -1795.05709158
  atomic energy  EATOM  =     40197.80149763
  Solvation  Ediel_sol  =         0.00000000
  ---------------------------------------------------
  free energy    TOTEN  =      -538.63052525 eV

  energy without entropy =     -538.70751108  energy(sigma->0) =     -538.65618720


--------------------------------------------------------------------------------------------------------




--------------------------------------- Iteration      1(  12)  ---------------------------------------


    POTLOK:  cpu time    0.4150: real time    0.4268
    SETDIJ:  cpu time    0.0242: real time    0.0242
    EDDIAG:  cpu time    4.8518: real time    4.8535
  RMM-DIIS:  cpu time   18.2413: real time   18.2525
    ORTHCH:  cpu time    1.2931: real time    1.2933
       DOS:  cpu time    0.0084: real time    0.0084
    CHARGE:  cpu time    1.1890: real time    1.1891
    MIXING:  cpu time    0.0081: real time    0.0081
    --------------------------------------------
      LOOP:  cpu time   26.0309: real time   26.0558

 eigenvalue-minimisations  :  7521
 total energy-change (2. order) : 0.3096921E-02  (-0.2651555E-02)
 number of electron     542.0000171 magnetization     137.9145425
 augmentation part      269.7902603 magnetization     110.2117496

 DIPCOR: dipole corrections for dipol
 direction  3 min pos   242,
 dipolmoment           0.000000      0.000000      0.305724 electrons x Angstroem
 Tr[quadrupol]     -8923.857777

 energy correction for charged system         0.000000 eV
 dipol+quadrupol energy correction           -0.004316 eV
 added-field ion interaction          1.674252 eV  (added to PSCEN)


 Broyden mixing:
  rms(total) = 0.60977E-01    rms(broyden)= 0.60974E-01
  rms(prec ) = 0.65897E-01
  weight for this iteration     100.00

 eigenvalues of (default mixing * dielectric matrix)
  average eigenvalue GAMMA=   0.5130
  2.1231  0.7495  0.7495  0.6215  0.6215  0.0587  0.1839  0.1605  0.1392  0.1262
  0.1096

 Free energy of the ion-electron system (eV)
  ---------------------------------------------------
  alpha Z        PSCENC =      1563.00065758
  Ewald energy   TEWEN  =    149854.26998864
  -Hartree energ DENC   =   -190184.11131910
  -exchange      EXHF   =         0.00000000
  -V(xc)+E(xc)   XCENC  =       415.97865612
  PAW double counting   =     47556.67502340   -48145.77649337
  entropy T*S    EENTRO =         0.07610923
  eigenvalues    EBANDS =     -1796.54154846
  atomic energy  EATOM  =     40197.80149763
  Solvation  Ediel_sol  =         0.00000000
  ---------------------------------------------------
  free energy    TOTEN  =      -538.62742833 eV

  energy without entropy =     -538.70353756  energy(sigma->0) =     -538.65279808


--------------------------------------------------------------------------------------------------------




--------------------------------------- Iteration      1(  13)  ---------------------------------------


    POTLOK:  cpu time    0.4173: real time    0.4301
    SETDIJ:  cpu time    0.0242: real time    0.0242
    EDDIAG:  cpu time    4.8551: real time    4.8561
  RMM-DIIS:  cpu time   18.7240: real time   18.7386
    ORTHCH:  cpu time    1.2915: real time    1.2917
       DOS:  cpu time    0.0084: real time    0.0088
    CHARGE:  cpu time    1.1887: real time    1.1888
    MIXING:  cpu time    0.0082: real time    0.0082
    --------------------------------------------
      LOOP:  cpu time   26.5175: real time   26.5464

 eigenvalue-minimisations  :  7698
 total energy-change (2. order) :-0.5401284E-02  (-0.1907036E-02)
 number of electron     542.0000171 magnetization     137.8610202
 augmentation part      269.8430763 magnetization     110.1967441

 DIPCOR: dipole corrections for dipol
 direction  3 min pos   243,
 dipolmoment           0.000000      0.000000      0.307060 electrons x Angstroem
 Tr[quadrupol]     -8923.936309

 energy correction for charged system         0.000000 eV
 dipol+quadrupol energy correction           -0.004354 eV
 added-field ion interaction          2.694071 eV  (added to PSCEN)


 Broyden mixing:
  rms(total) = 0.60562E-01    rms(broyden)= 0.60560E-01
  rms(prec ) = 0.66945E-01
  weight for this iteration     100.00

 eigenvalues of (default mixing * dielectric matrix)
  average eigenvalue GAMMA=   0.5128
  2.3830  0.8226  0.8226  0.5781  0.5781  0.0587  0.1965  0.1965  0.1427  0.1427
  0.1094  0.1230

 Free energy of the ion-electron system (eV)
  ---------------------------------------------------
  alpha Z        PSCENC =      1564.02043903
  Ewald energy   TEWEN  =    149854.26998864
  -Hartree energ DENC   =   -190184.39948859
  -exchange      EXHF   =         0.00000000
  -V(xc)+E(xc)   XCENC  =       415.87702948
  PAW double counting   =     47538.71194023   -48127.22553356
  entropy T*S    EENTRO =         0.07697683
  eigenvalues    EBANDS =     -1797.76567931
  atomic energy  EATOM  =     40197.80149763
  Solvation  Ediel_sol  =         0.00000000
  ---------------------------------------------------
  free energy    TOTEN  =      -538.63282962 eV

  energy without entropy =     -538.70980644  energy(sigma->0) =     -538.65848856


--------------------------------------------------------------------------------------------------------




--------------------------------------- Iteration      1(  14)  ---------------------------------------


    POTLOK:  cpu time    0.4160: real time    0.4278
    SETDIJ:  cpu time    0.0243: real time    0.0243
    EDDIAG:  cpu time    4.8501: real time    4.8511
  RMM-DIIS:  cpu time   18.4101: real time   18.4215
    ORTHCH:  cpu time    1.2912: real time    1.2916
       DOS:  cpu time    0.0083: real time    0.0083
    CHARGE:  cpu time    1.1892: real time    1.1894
    MIXING:  cpu time    0.0085: real time    0.0085
    --------------------------------------------
      LOOP:  cpu time   26.1977: real time   26.2224

 eigenvalue-minimisations  :  7630
 total energy-change (2. order) :-0.4939394E-02  (-0.1017103E-02)
 number of electron     542.0000171 magnetization     137.7770285
 augmentation part      269.8719977 magnetization     110.1229165

 DIPCOR: dipole corrections for dipol
 direction  3 min pos   243,
 dipolmoment           0.000000      0.000000      0.308174 electrons x Angstroem
 Tr[quadrupol]     -8923.935674

 energy correction for charged system         0.000000 eV
 dipol+quadrupol energy correction           -0.004385 eV
 added-field ion interaction          2.703851 eV  (added to PSCEN)


 Broyden mixing:
  rms(total) = 0.40802E-01    rms(broyden)= 0.40800E-01
  rms(prec ) = 0.44129E-01
  weight for this iteration     100.00

 eigenvalues of (default mixing * dielectric matrix)
  average eigenvalue GAMMA=   0.5577
  2.6280  0.9637  0.9637  0.6005  0.6005  0.5608  0.0587  0.1907  0.1670  0.1095
  0.1488  0.1248  0.1333

 Free energy of the ion-electron system (eV)
  ---------------------------------------------------
  alpha Z        PSCENC =      1564.03018702
  Ewald energy   TEWEN  =    149854.26998864
  -Hartree energ DENC   =   -190184.18464439
  -exchange      EXHF   =         0.00000000
  -V(xc)+E(xc)   XCENC  =       415.82757127
  PAW double counting   =     47533.29721375   -48121.62279072
  entropy T*S    EENTRO =         0.07755463
  eigenvalues    EBANDS =     -1798.13434685
  atomic energy  EATOM  =     40197.80149763
  Solvation  Ediel_sol  =         0.00000000
  ---------------------------------------------------
  free energy    TOTEN  =      -538.63776901 eV

  energy without entropy =     -538.71532364  energy(sigma->0) =     -538.66362055


--------------------------------------------------------------------------------------------------------




--------------------------------------- Iteration      1(  15)  ---------------------------------------


    POTLOK:  cpu time    0.4151: real time    0.4252
    SETDIJ:  cpu time    0.0242: real time    0.0242
    EDDIAG:  cpu time    4.8472: real time    4.8485
  RMM-DIIS:  cpu time   18.7814: real time   18.7890
    ORTHCH:  cpu time    1.2943: real time    1.2944
       DOS:  cpu time    0.0085: real time    0.0085
    CHARGE:  cpu time    1.1854: real time    1.1909
    MIXING:  cpu time    0.0088: real time    0.0087
    --------------------------------------------
      LOOP:  cpu time   26.5649: real time   26.5895

 eigenvalue-minimisations  :  7734
 total energy-change (2. order) :-0.1778192E-01  (-0.7253148E-03)
 number of electron     542.0000171 magnetization     137.7126851
 augmentation part      269.8647393 magnetization     110.0893233

 DIPCOR: dipole corrections for dipol
 direction  3 min pos   242,
 dipolmoment           0.000000      0.000000      0.310008 electrons x Angstroem
 Tr[quadrupol]     -8923.905537

 energy correction for charged system         0.000000 eV
 dipol+quadrupol energy correction           -0.004438 eV
 added-field ion interaction          1.697716 eV  (added to PSCEN)


 Broyden mixing:
  rms(total) = 0.48980E-01    rms(broyden)= 0.48979E-01
  rms(prec ) = 0.54753E-01
  weight for this iteration     100.00

 eigenvalues of (default mixing * dielectric matrix)
  average eigenvalue GAMMA=   0.5581
  2.7679  1.0439  1.0439  0.6232  0.6232  0.5885  0.0587  0.1939  0.1939  0.1624
  0.1095  0.1465  0.1348  0.1236

 Free energy of the ion-electron system (eV)
  ---------------------------------------------------
  alpha Z        PSCENC =      1563.02399998
  Ewald energy   TEWEN  =    149854.26998864
  -Hartree energ DENC   =   -190184.71686176
  -exchange      EXHF   =         0.00000000
  -V(xc)+E(xc)   XCENC  =       415.77845144
  PAW double counting   =     47532.34997111   -48120.63308353
  entropy T*S    EENTRO =         0.07831321
  eigenvalues    EBANDS =     -1796.60782765
  atomic energy  EATOM  =     40197.80149763
  Solvation  Ediel_sol  =         0.00000000
  ---------------------------------------------------
  free energy    TOTEN  =      -538.65555093 eV

  energy without entropy =     -538.73386414  energy(sigma->0) =     -538.68165533


--------------------------------------------------------------------------------------------------------




--------------------------------------- Iteration      1(  16)  ---------------------------------------


    POTLOK:  cpu time    0.4151: real time    0.4263
    SETDIJ:  cpu time    0.0242: real time    0.0242
    EDDIAG:  cpu time    4.8488: real time    4.8500
  RMM-DIIS:  cpu time   18.0102: real time   18.0166
    ORTHCH:  cpu time    1.2933: real time    1.2935
       DOS:  cpu time    0.0083: real time    0.0083
    CHARGE:  cpu time    1.1889: real time    1.1891
    MIXING:  cpu time    0.0090: real time    0.0090
    --------------------------------------------
      LOOP:  cpu time   25.7979: real time   25.8170

 eigenvalue-minimisations  :  7404
 total energy-change (2. order) :-0.1570570E-01  (-0.4357750E-03)
 number of electron     542.0000171 magnetization     137.6316320
 augmentation part      269.8517077 magnetization     110.0147559

 DIPCOR: dipole corrections for dipol
 direction  3 min pos   241,
 dipolmoment           0.000000      0.000000      0.312067 electrons x Angstroem
 Tr[quadrupol]     -8923.869295

 energy correction for charged system         0.000000 eV
 dipol+quadrupol energy correction           -0.004497 eV
 added-field ion interaction          0.679975 eV  (added to PSCEN)


 Broyden mixing:
  rms(total) = 0.36916E-01    rms(broyden)= 0.36915E-01
  rms(prec ) = 0.43793E-01
  weight for this iteration     100.00

 eigenvalues of (default mixing * dielectric matrix)
  average eigenvalue GAMMA=   0.5722
  2.8407  1.1311  1.1311  0.6473  0.6473  0.5451  0.5451  0.0587  0.1991  0.1729
  0.1095  0.1542  0.1448  0.1313  0.1242

 Free energy of the ion-electron system (eV)
  ---------------------------------------------------
  alpha Z        PSCENC =      1562.00619950
  Ewald energy   TEWEN  =    149854.26998864
  -Hartree energ DENC   =   -190185.09320958
  -exchange      EXHF   =         0.00000000
  -V(xc)+E(xc)   XCENC  =       415.74730196
  PAW double counting   =     47532.97782717   -48121.26399650
  entropy T*S    EENTRO =         0.07841124
  eigenvalues    EBANDS =     -1795.19527671
  atomic energy  EATOM  =     40197.80149763
  Solvation  Ediel_sol  =         0.00000000
  ---------------------------------------------------
  free energy    TOTEN  =      -538.67125662 eV

  energy without entropy =     -538.74966787  energy(sigma->0) =     -538.69739371


--------------------------------------------------------------------------------------------------------




--------------------------------------- Iteration      1(  17)  ---------------------------------------


    POTLOK:  cpu time    0.4136: real time    0.4254
    SETDIJ:  cpu time    0.0242: real time    0.0242
    EDDIAG:  cpu time    4.8587: real time    4.8656
  RMM-DIIS:  cpu time   18.0770: real time   18.0842
    ORTHCH:  cpu time    1.2975: real time    1.2978
       DOS:  cpu time    0.0081: real time    0.0081
    CHARGE:  cpu time    1.1833: real time    1.1835
    MIXING:  cpu time    0.0092: real time    0.0092
[...]
   0.108E+03 0.353E+02 -.163E+04   -.110E+03 -.358E+02 0.163E+04   0.201E+01 0.503E+00 0.223E+01   -.906E-03 0.591E-03 -.758E-03
   -.491E+00 -.114E+00 0.192E+04   0.559E+00 0.142E+00 -.192E+04   -.518E-01 -.206E-01 -.325E+01   -.327E-03 -.209E-03 0.217E-02
   -.715E+00 -.118E+02 -.420E+03   0.110E+01 0.118E+02 0.419E+03   -.397E+00 0.247E-01 0.130E+01   -.716E-03 -.286E-03 0.199E-02
   -.624E+01 0.638E+01 0.754E+03   0.628E+01 -.649E+01 -.754E+03   -.181E-01 0.332E-01 -.168E+00   -.636E-03 0.265E-04 0.407E-02
   -.635E+02 -.731E+02 -.165E+04   0.640E+02 0.739E+02 0.165E+04   -.566E+00 -.760E+00 0.144E+01   0.693E-03 0.268E-03 -.146E-03
   -.113E+01 -.432E+00 0.192E+04   0.113E+01 0.418E+00 -.192E+04   0.275E-02 0.131E-01 -.325E+01   0.279E-03 0.199E-03 0.227E-02
   -.820E+01 -.174E+02 -.456E+03   0.835E+01 0.169E+02 0.455E+03   -.145E+00 0.451E+00 0.985E+00   0.770E-03 0.110E-03 0.248E-02
   -.132E+01 0.715E+00 0.749E+03   0.145E+01 -.696E+00 -.749E+03   -.192E+00 -.559E-01 -.277E+00   0.104E-02 -.102E-03 0.445E-02
   0.212E+02 0.880E+01 -.164E+04   -.202E+02 -.871E+01 0.164E+04   -.958E+00 -.953E-01 0.349E+01   0.265E-03 -.251E-03 0.377E-05
   0.594E+00 -.300E+00 0.192E+04   -.591E+00 0.319E+00 -.192E+04   0.139E-01 -.363E-02 -.329E+01   0.561E-03 0.370E-03 0.292E-02
   -.590E+00 -.396E+01 -.448E+03   0.754E+00 0.408E+01 0.447E+03   -.169E+00 -.111E+00 0.107E+01   0.126E-02 0.665E-03 0.201E-02
   0.223E+01 0.260E+01 0.748E+03   -.220E+01 -.269E+01 -.748E+03   0.262E-01 0.458E-01 -.443E+00   0.464E-03 0.703E-03 0.490E-02
   -.790E+02 0.538E+02 -.169E+04   0.804E+02 -.550E+02 0.169E+04   -.142E+01 0.117E+01 0.255E+01   -.406E-03 0.604E-03 -.788E-03
   0.555E+00 -.107E+01 0.192E+04   -.586E+00 0.113E+01 -.192E+04   0.318E-01 -.322E-01 -.327E+01   -.687E-03 0.523E-04 0.219E-02
   0.267E+01 -.168E+01 -.480E+03   -.290E+01 0.192E+01 0.480E+03   0.244E+00 -.235E+00 0.294E+00   -.180E-02 0.301E-03 0.242E-02
   0.399E+01 -.645E+01 0.754E+03   -.414E+01 0.647E+01 -.754E+03   0.999E-01 -.338E-01 -.293E+00   -.112E-02 -.648E-03 0.452E-02
   0.437E+02 -.155E+03 -.170E+04   -.433E+02 0.156E+03 0.169E+04   -.401E+00 -.132E+01 0.156E+01   -.813E-03 -.116E-03 -.656E-03
   -.961E+00 -.104E+01 0.192E+04   0.964E+00 0.102E+01 -.192E+04   -.642E-02 0.218E-01 -.322E+01   0.345E-04 0.304E-03 0.193E-02
   -.686E+01 -.810E+01 -.445E+03   0.666E+01 0.850E+01 0.444E+03   0.210E+00 -.403E+00 0.137E+01   0.428E-04 0.512E-03 0.174E-02
   -.880E+01 -.262E+01 0.747E+03   0.897E+01 0.265E+01 -.747E+03   -.130E+00 -.191E-01 -.372E+00   0.388E-03 0.352E-05 0.411E-02
   -.376E+02 -.488E+02 -.170E+04   0.371E+02 0.492E+02 0.170E+04   0.519E+00 -.385E+00 0.233E+01   0.693E-03 -.101E-02 -.246E-03
   -.399E+00 -.461E+00 0.192E+04   0.412E+00 0.458E+00 -.192E+04   -.302E-01 -.203E-01 -.336E+01   0.631E-03 0.161E-03 0.254E-02
   0.342E+01 0.255E+01 -.483E+03   -.306E+01 -.247E+01 0.483E+03   -.356E+00 -.851E-01 0.627E-01   0.139E-02 -.643E-03 0.168E-02
   0.370E+01 -.393E+01 0.744E+03   -.373E+01 0.406E+01 -.743E+03   -.500E-01 -.209E-01 -.351E+00   0.169E-02 0.143E-03 0.461E-02
   0.334E+02 -.107E+03 -.170E+04   -.333E+02 0.109E+03 0.170E+04   -.160E+00 -.164E+01 0.266E+01   0.148E-02 -.176E-03 -.711E-03
   0.794E+00 -.618E+00 0.192E+04   -.785E+00 0.553E+00 -.192E+04   -.825E-02 0.419E-01 -.324E+01   0.726E-04 -.147E-03 0.317E-02
   0.250E+00 0.214E+01 -.446E+03   -.500E+00 -.214E+01 0.446E+03   0.247E+00 0.230E-02 0.763E+00   0.514E-03 -.867E-03 0.233E-02
   0.171E+01 -.273E+01 0.748E+03   -.174E+01 0.272E+01 -.749E+03   0.168E-01 -.242E-02 -.420E+00   -.949E-03 -.254E-03 0.518E-02
   -.206E+02 -.123E+02 -.170E+04   0.208E+02 0.130E+02 0.170E+04   -.166E+00 -.760E+00 0.475E+01   -.109E-02 0.725E-03 -.111E-02
   0.566E+02 0.480E+02 -.171E+04   -.583E+02 -.489E+02 0.174E+04   0.163E+01 0.901E+00 -.258E+02   -.472E-03 0.818E-03 -.180E-03
   -.422E+02 0.349E+02 -.171E+04   0.429E+02 -.335E+02 0.173E+04   -.716E+00 -.144E+01 -.256E+02   0.123E-02 -.748E-03 -.106E-02
   -.244E+02 -.224E+02 -.171E+04   0.259E+02 0.232E+02 0.174E+04   -.144E+01 -.797E+00 -.255E+02   0.678E-03 -.743E-04 -.530E-03
   0.419E+02 -.469E+02 -.173E+04   -.429E+02 0.459E+02 0.175E+04   0.102E+01 0.957E+00 -.268E+02   -.246E-03 -.102E-02 -.277E-03
   -.361E+02 -.213E+02 -.168E+04   0.380E+02 0.226E+02 0.170E+04   -.192E+01 -.132E+01 -.247E+02   0.196E-02 0.155E-02 0.257E-04
 -----------------------------------------------------------------------------------------------
   0.297E+01 0.340E+01 0.130E+03   0.568E-12 -.632E-12 0.364E-11   -.296E+01 -.340E+01 -.131E+03   0.285E-02 0.642E-03 0.130E+00
 
 
 POSITION                                       TOTAL-FORCE (eV/Angst)
 -----------------------------------------------------------------------------------
      1.40594      1.52230      2.00000        -0.010667      0.010158      0.307949
      1.42204      1.51270      6.00442         0.000745      0.004813      0.008090
      2.23340      0.35210      4.02685         0.052370      0.013978     -0.409084
      2.23474      0.31564      7.91728         0.002006      0.007724     -0.012350
      3.88832      1.52230      2.00000         0.020373      0.023499      0.271841
      3.91154      1.53193      6.00461         0.004252      0.003117      0.009251
      4.71578      0.35210      4.02685         0.084906     -0.081596     -0.268492
      4.76373      0.42209      8.00839         0.004743     -0.005488     -0.010730
      6.37069      1.52230      2.00000        -0.012813      0.008830      0.306472
      6.38911      1.51026      6.02955        -0.001541     -0.002772      0.016366
      7.19815      0.35210      4.02685        -0.126921      0.034709     -0.310627
      7.19942      0.25110      7.96073         0.014943      0.003294      0.019923
      8.85307      1.52230      2.00000         0.006364      0.001243      0.331900
      8.86802      1.50739      5.99746        -0.001399     -0.004484      0.014999
      9.68053      0.35210      4.02685         0.033136     -0.051286     -0.381437
      9.72850      0.30701      7.98017         0.011286     -0.001293      0.008686
      2.23340      3.86271      2.00000        -0.012885     -0.014065      0.318743
      2.22430      3.85573      6.01376        -0.007166     -0.006048      0.003107
      3.06086      2.69251      4.02685        -0.001374      0.041369     -0.317839
      3.05859      2.69618      8.00592         0.003108     -0.002063     -0.009551
      4.71578      3.86271      2.00000        -0.003723     -0.010863      0.317301
      4.70185      3.88987      6.01109         0.003478      0.000171      0.006396
      5.54324      2.69251      4.02685         0.017770     -0.003639     -0.147556
      5.56566      2.79769      8.01953         0.024143      0.017619     -0.008213
      7.19815      3.86271      2.00000        -0.002145     -0.005639      0.324216
      7.18280      3.85615      6.03961        -0.004529      0.000936      0.015232
      8.02561      2.69251      4.02685        -0.055357      0.080324     -0.244865
      8.08155      2.65447      8.02876        -0.000296     -0.005841      0.006794
      9.68053      3.86271      2.00000         0.026480     -0.003134      0.329041
      9.66818      3.85092      6.01245         0.000862      0.004721      0.019615
     10.50799      2.69251      4.02685         0.003877      0.029254     -0.403929
     10.54965      2.66137      7.92359        -0.001460      0.000597      0.002161
      3.06086      6.20311      2.00000        -0.013609      0.020836      0.328517
      3.05685      6.18658      5.98393        -0.006285      0.003798      0.007969
      3.88832      5.03291      4.02685         0.032413     -0.109848     -0.374009
      3.75116      5.02770      7.94501         0.000600      0.016202     -0.010385
      5.54324      6.20311      2.00000         0.015994      0.008431      0.264640
      5.53475      6.19848      5.94961        -0.006744      0.000653      0.021034
      6.37069      5.03291      4.02685         0.017172     -0.069138     -0.227646
      6.31050      5.25557      8.10036        -0.023297      0.021516     -0.013276
      8.02561      6.20311      2.00000         0.009499     -0.000433      0.313339
      8.01311      6.16745      6.01077         0.005321     -0.004995      0.010487
      8.85307      5.03291      4.02685        -0.064767     -0.035537     -0.259758
      8.76288      4.98729      7.98129        -0.009197     -0.003767      0.016663
     10.50799      6.20311      2.00000         0.017469      0.015205      0.259952
     10.49664      6.19358      5.99247        -0.003770      0.008168      0.019621
     11.33544      5.03291      4.02685         0.053087     -0.044180     -0.377800
     11.29898      4.98904      7.99801        -0.003387     -0.000257     -0.002088
      3.88832      8.54352      2.00000         0.000674      0.025783      0.278672
      3.90166      8.52980      6.00988         0.008445      0.006648      0.002492
      4.71578      7.37332      4.02685        -0.053152     -0.015624     -0.385317
      4.84137      7.36545      8.01563         0.000925     -0.004138      0.007706
      6.37069      8.54352      2.00000        -0.003762      0.003017      0.320255
      6.35183      8.56182      5.96352         0.004701      0.003610      0.004810
      7.19815      7.37332      4.02685         0.041742      0.015800     -0.284158
      7.20201      7.47823      7.86141         0.007580      0.007574     -0.009360
      8.85307      8.54352      2.00000        -0.016879     -0.023309      0.343431
      8.84329      8.53334      6.03824         0.003149     -0.000681      0.020394
      9.68053      7.37332      4.02685        -0.079217      0.107583     -0.251102
      9.70115      7.34329      7.99760        -0.002868     -0.010924      0.006158
     11.33544      8.54352      2.00000         0.000769     -0.023772      0.341328
     11.33067      8.53347      5.98755        -0.000480     -0.004478      0.019095
     12.16290      7.37332      4.02685        -0.021292     -0.011207     -0.539560
     12.18527      7.37043      7.85860        -0.004020     -0.000760     -0.006358
      4.32550      1.87099      9.09591         0.006372      0.009806      0.004893
      8.44571      1.09558      9.06170         0.005572     -0.010230      0.019317
     10.02874      5.84301      9.08119         0.005602     -0.007825      0.014654
      4.83669      5.89698      9.13148        -0.028578      0.005080      0.005030
      6.88159      3.69240      9.00994         0.031653      0.013247     -0.003048
 -----------------------------------------------------------------------------------
    total drift:                                0.011720     -0.000117     -0.007852


--------------------------------------------------------------------------------------------------------



  FREE ENERGIE OF THE ION-ELECTRON SYSTEM (eV)
  ---------------------------------------------------
  free  energy   TOTEN  =      -552.17968237 eV

  energy  without entropy=     -552.25997036  energy(sigma->0) =     -552.20644503
 
 d Force = 0.9592433E-03[ 0.525E-03, 0.139E-02]  d Energy = 0.1462056E-02-0.503E-03
 d Force = 0.2501321E+02[ 0.250E+02, 0.250E+02]  d Ewald  = 0.2501321E+02-0.113E-05


--------------------------------------------------------------------------------------------------------


    POTLOK:  cpu time    0.4373: real time    0.4374


--------------------------------------------------------------------------------------------------------


 stress matrix after NEB project (eV)
    -39.94701      4.40106      0.13740
      4.40106    -42.48925      0.15655
      0.13740      0.15655     -9.83535
  FORCES: max atom, RMS     0.034448    0.012976
  FORCE total and by dimension    0.107783    0.031653
  Stress total and by dimension   59.469820   42.489247
 Conjugate gradient step on ions:
 trial-energy change:   -0.001462  1 .order   -0.000959   -0.001393   -0.000525
  (g-gl).g = 0.123E-02      g.g   = 0.120E-02  gl.gl    = 0.259E-02
 g(Force)  = 0.120E-02   g(Stress)= 0.000E+00 ortho     =-0.298E-04
 gamma     =   0.47402
 trial     =   1.17610
 opt step  =   1.32128  (harmonic =   1.88844) maximal distance =0.00385510
 next E    =  -552.179716   (d E  =  -0.00150)


--------------------------------------------------------------------------------------------------------


  
 reached required accuracy - stopping structural energy minimisation
 writing wavefunctions
     LOOP+:  cpu time  582.7773: real time  606.8050
    4ORBIT:  cpu time    0.0000: real time    0.0000
 


 total charge     
 
# of ion       s       p       d       tot
------------------------------------------
    1        0.466   0.376   6.195   7.037
    2        0.483   0.535   6.261   7.280
    3        0.478   0.516   6.246   7.240
    4        0.480   0.417   6.205   7.102
    5        0.466   0.377   6.194   7.037
    6        0.477   0.521   6.237   7.234
    7        0.472   0.511   6.234   7.216
    8        0.472   0.499   6.237   7.209
    9        0.465   0.377   6.196   7.039
   10        0.474   0.521   6.226   7.221
   11        0.474   0.511   6.239   7.224
   12        0.472   0.506   6.268   7.246
   13        0.465   0.377   6.196   7.037
   14        0.478   0.520   6.242   7.240
   15        0.473   0.512   6.242   7.227
   16        0.477   0.506   6.262   7.245
   17        0.466   0.376   6.196   7.038
   18        0.486   0.539   6.235   7.261
   19        0.473   0.511   6.238   7.221
   20        0.473   0.505   6.246   7.225
   21        0.465   0.377   6.197   7.039
   22        0.481   0.528   6.241   7.250
   23        0.472   0.508   6.226   7.206
   24        0.451   0.571   6.234   7.255
   25        0.465   0.376   6.197   7.038
   26        0.473   0.511   6.221   7.206
   27        0.471   0.509   6.234   7.214
   28        0.457   0.580   6.282   7.319
   29        0.466   0.377   6.195   7.037
   30        0.478   0.526   6.244   7.248
   31        0.473   0.512   6.236   7.221
   32        0.471   0.406   6.226   7.103
   33        0.466   0.375   6.197   7.038
   34        0.490   0.541   6.269   7.300
   35        0.477   0.516   6.242   7.235
   36        0.484   0.529   6.295   7.307
   37        0.465   0.376   6.197   7.039
   38        0.488   0.534   6.240   7.263
   39        0.475   0.514   6.239   7.228
   40        0.449   0.572   6.234   7.254
   41        0.465   0.377   6.197   7.039
   42        0.481   0.532   6.250   7.264
   43        0.474   0.512   6.237   7.223
   44        0.450   0.493   6.242   7.186
   45        0.466   0.376   6.194   7.037
   46        0.477   0.523   6.240   7.239
   47        0.473   0.513   6.241   7.227
   48        0.472   0.500   6.249   7.221
   49        0.466   0.376   6.196   7.037
   50        0.486   0.537   6.232   7.256
   51        0.477   0.517   6.246   7.241
   52        0.479   0.529   6.232   7.240
   53        0.465   0.376   6.198   7.040
   54        0.493   0.549   6.272   7.314
   55        0.476   0.514   6.229   7.219
   56        0.502   0.457   6.190   7.148
   57        0.465   0.376   6.197   7.038
   58        0.481   0.530   6.230   7.241
   59        0.472   0.512   6.236   7.220
   60        0.472   0.496   6.238   7.206
   61        0.466   0.376   6.196   7.038
   62        0.485   0.538   6.261   7.285
   63        0.475   0.515   6.241   7.231
   64        0.465   0.399   6.226   7.091
   65        1.581   3.373   0.000   4.953
   66        1.580   3.370   0.000   4.951
   67        1.579   3.372   0.000   4.950
   68        1.582   3.374   0.000   4.956
   69        1.579   3.373   0.000   4.952
--------------------------------------------------
tot         38.173  47.537 398.711 484.421
 


 magnetization (x)
 
# of ion       s       p       d       tot
------------------------------------------
    1       -0.005  -0.018   2.679   2.657
    2       -0.015  -0.053   2.363   2.295
    3       -0.014  -0.057   2.421   2.350
    4        0.011   0.000   2.568   2.579
    5       -0.004  -0.016   2.688   2.669
    6       -0.013  -0.047   2.518   2.459
    7       -0.015  -0.055   2.460   2.390
    8        0.009   0.006   2.365   2.381
    9       -0.004  -0.016   2.667   2.646
   10       -0.007  -0.041   2.332   2.284
   11       -0.014  -0.058   2.456   2.384
   12       -0.002  -0.008   2.184   2.174
   13       -0.005  -0.017   2.686   2.664
   14       -0.013  -0.052   2.494   2.429
   15       -0.016  -0.059   2.469   2.394
   16        0.006   0.005   2.194   2.205
   17       -0.005  -0.017   2.675   2.653
   18       -0.010  -0.053   2.336   2.273
   19       -0.016  -0.056   2.472   2.400
   20        0.002  -0.012   2.404   2.395
   21       -0.005  -0.016   2.659   2.639
   22       -0.009  -0.033   2.189   2.147
   23       -0.014  -0.054   2.487   2.419
   24       -0.029  -0.047  -2.259  -2.335
   25       -0.005  -0.016   2.675   2.654
   26       -0.004  -0.033   2.365   2.328
   27       -0.016  -0.058   2.464   2.390
   28       -0.002  -0.007   1.995   1.986
   29       -0.005  -0.017   2.676   2.655
   30       -0.012  -0.051   2.444   2.381
   31       -0.015  -0.057   2.447   2.374
   32       -0.003  -0.022   2.691   2.667
   33       -0.004  -0.018   2.675   2.653
   34       -0.015  -0.047   2.303   2.242
   35       -0.014  -0.057   2.429   2.358
   36       -0.005  -0.008   2.081   2.068
   37       -0.004  -0.017   2.677   2.657
   38       -0.002  -0.025   2.238   2.211
   39       -0.015  -0.057   2.458   2.385
   40       -0.023  -0.034  -2.215  -2.271
   41       -0.005  -0.016   2.660   2.639
   42       -0.008  -0.037   2.197   2.152
   43       -0.015  -0.058   2.463   2.391
   44        0.004  -0.002   2.282   2.284
   45       -0.004  -0.017   2.689   2.668
   46       -0.015  -0.054   2.543   2.474
   47       -0.016  -0.057   2.459   2.386
   48        0.002  -0.014   2.312   2.299
   49       -0.005  -0.017   2.685   2.663
   50       -0.005  -0.049   2.312   2.258
   51       -0.015  -0.056   2.455   2.383
   52       -0.031  -0.045  -2.070  -2.147
   53       -0.004  -0.017   2.659   2.638
   54       -0.008  -0.034   2.048   2.005
   55       -0.013  -0.052   2.457   2.391
   56       -0.037  -0.042  -2.379  -2.457
   57       -0.006  -0.017   2.672   2.649
   58       -0.008  -0.040   2.259   2.211
   59       -0.016  -0.057   2.445   2.372
   60        0.008  -0.007   2.312   2.313
   61       -0.004  -0.018   2.681   2.659
   62       -0.013  -0.052   2.391   2.325
   63       -0.015  -0.055   2.420   2.350
   64        0.001  -0.011   2.718   2.709
   65        0.000  -0.005   0.000  -0.004
   66        0.003   0.017   0.000   0.019
   67        0.002   0.039   0.000   0.042
   68       -0.002  -0.086   0.000  -0.088
   69       -0.001  -0.039   0.000  -0.039
--------------------------------------------------
tot         -0.554  -2.195 138.581 135.832
 

 total amount of memory used by VASP MPI-rank0   110025. kBytes
=======================================================================

   base      :      30000. kBytes
   nonlr-proj:      13531. kBytes
   fftplans  :       6401. kBytes
   grid      :      16455. kBytes
   one-center:         93. kBytes
   wavefun   :      43545. kBytes
 
  
  
 General timing and accounting informations for this job:
 ========================================================
  
                  Total CPU time used (sec):     2395.440
                            User time (sec):     2276.135
                          System time (sec):      119.305
                         Elapsed time (sec):     2424.505
  
                   Maximum memory used (kb):      349424.
                   Average memory used (kb):           0.
  
                          Minor page faults:     20624445
                          Major page faults:            0
                 Voluntary context switches:         3674
