SQS-NiFe                                
           1
     9.929500    0.000000    0.000000
     3.309833    9.361622    0.000000
     0.000000    0.000000   21.080550
   Fe   O 
  64   5
Direct configuration=     1
   0.08738900  0.16261100  0.09487400
   0.08938215  0.16142015  0.28487454
   0.21238900  0.03761100  0.19102200
   0.21365050  0.03372685  0.37563527
   0.33738900  0.16261100  0.09487400
   0.33934123  0.16382977  0.28499172
   0.46238900  0.03761100  0.19102200
   0.46468635  0.04512834  0.37980038
   0.58738900  0.16261100  0.09487400
   0.58949037  0.16139528  0.28618328
   0.71238900  0.03761100  0.19102200
   0.71602988  0.02703252  0.37744437
   0.83738900  0.16261100  0.09487400
   0.83945677  0.16066424  0.28456684
   0.96238900  0.03761100  0.19102200
   0.96907066  0.03272388  0.37843559
   0.08738900  0.41261100  0.09487400
   0.08685697  0.41149764  0.28531766
   0.21238900  0.28761100  0.19102200
   0.21214134  0.28792248  0.37975744
   0.33738900  0.41261100  0.09487400
   0.33513469  0.41556850  0.28531212
   0.46238900  0.28761100  0.19102200
   0.46076360  0.29852582  0.38032104
   0.58738900  0.41261100  0.09487400
   0.58595024  0.41207593  0.28668873
   0.71238900  0.28761100  0.19102200
   0.71925307  0.28412508  0.38063471
   0.83738900  0.41261100  0.09487400
   0.83672229  0.41134884  0.28526309
   0.96238900  0.28761100  0.19102200
   0.96758504  0.28446836  0.37567286
   0.08738900  0.66261100  0.09487400
   0.08758568  0.66066502  0.28399862
   0.21238900  0.53761100  0.19102200
   0.19890566  0.53717205  0.37694080
   0.33738900  0.66261100  0.09487400
   0.33673569  0.66182022  0.28246105
   0.46238900  0.53761100  0.19102200
   0.44859502  0.56128588  0.38398778
   0.58738900  0.66261100  0.09487400
   0.58771112  0.65878687  0.28522860
   0.71238900  0.53761100  0.19102200
   0.70526133  0.53273154  0.37835983
   0.83738900  0.66261100  0.09487400
   0.83681677  0.66154210  0.28434174
   0.96238900  0.53761100  0.19102200
   0.96048840  0.53310120  0.37942058
   0.08738900  0.91261100  0.09487400
   0.08937370  0.91109169  0.28497043
   0.21238900  0.78761100  0.19102200
   0.22505047  0.78630864  0.37997205
   0.33738900  0.91261100  0.09487400
   0.33472940  0.91456947  0.28305739
   0.46238900  0.78761100  0.19102200
   0.45932307  0.79906526  0.37292563
   0.58738900  0.91261100  0.09487400
   0.58656218  0.91161133  0.28658522
   0.71238900  0.78761100  0.19102200
   0.71571540  0.78456913  0.37908841
   0.83738900  0.91261100  0.09487400
   0.83719963  0.91123330  0.28412447
   0.96238900  0.78761100  0.19102200
   0.96436654  0.78719020  0.37273031
   0.36877158  0.19963006  0.43153822
   0.81105712  0.11701691  0.42948279
   0.80151780  0.62434307  0.43051572
   0.27735167  0.62985388  0.43320601
   0.56141811  0.39362696  0.42748023
Direct configuration=     2
   0.08738900  0.16261100  0.09487400
   0.08937258  0.16147040  0.28484852
   0.21238900  0.03761100  0.19102200
   0.21371638  0.03371579  0.37562668
   0.33738900  0.16261100  0.09487400
   0.33934699  0.16376176  0.28492577
   0.46238900  0.03761100  0.19102200
   0.46469233  0.04511068  0.37984867
   0.58738900  0.16261100  0.09487400
   0.58957086  0.16137279  0.28611026
   0.71238900  0.03761100  0.19102200
   0.71603644  0.02694124  0.37749705
   0.83738900  0.16261100  0.09487400
   0.83944445  0.16079370  0.28452609
   0.96238900  0.03761100  0.19102200
   0.96894252  0.03275885  0.37848284
   0.08738900  0.41261100  0.09487400
   0.08682410  0.41164332  0.28530289
   0.21238900  0.28761100  0.19102200
   0.21204580  0.28797090  0.37976533
   0.33738900  0.41261100  0.09487400
   0.33507191  0.41556423  0.28524093
   0.46238900  0.28761100  0.19102200
   0.46089184  0.29870120  0.38039308
   0.58738900  0.41261100  0.09487400
   0.58600677  0.41200957  0.28661040
   0.71238900  0.28761100  0.19102200
   0.71922665  0.28396829  0.38072576
   0.83738900  0.41261100  0.09487400
   0.83666296  0.41134076  0.28522249
   0.96238900  0.28761100  0.19102200
   0.96763927  0.28440502  0.37574556
   0.08738900  0.66261100  0.09487400
   0.08760125  0.66071803  0.28393698
   0.21238900  0.53761100  0.19102200
   0.19886435  0.53710423  0.37693914
   0.33738900  0.66261100  0.09487400
   0.33672489  0.66192255  0.28234601
   0.46238900  0.53761100  0.19102200
   0.44861093  0.56121050  0.38412829
   0.58738900  0.66261100  0.09487400
   0.58758934  0.65880103  0.28518236
   0.71238900  0.53761100  0.19102200
   0.70513433  0.53272183  0.37844193
   0.83738900  0.66261100  0.09487400
   0.83674725  0.66153730  0.28429308
   0.96238900  0.53761100  0.19102200
   0.96043988  0.53303233  0.37941441
   0.08738900  0.91261100  0.09487400
   0.08930617  0.91109759  0.28500375
   0.21238900  0.78761100  0.19102200
   0.22515415  0.78642323  0.38008382
   0.33738900  0.91261100  0.09487400
   0.33476191  0.91456318  0.28298788
   0.46238900  0.78761100  0.19102200
   0.45921857  0.79897780  0.37293539
   0.58738900  0.91261100  0.09487400
   0.58663160  0.91157821  0.28651257
   0.71238900  0.78761100  0.19102200
   0.71565041  0.78454012  0.37919261
   0.83738900  0.91261100  0.09487400
   0.83721558  0.91136287  0.28407154
   0.96238900  0.78761100  0.19102200
   0.96450849  0.78722947  0.37276357
   0.36885724  0.19967051  0.43152576
   0.81124093  0.11702227  0.42959716
   0.80165291  0.62428902  0.43060583
   0.27731387  0.62990022  0.43316263
   0.56138190  0.39388996  0.42739379
Direct configuration=     3
   0.08738900  0.16261100  0.09487400
   0.08936415  0.16151463  0.28482560
   0.21238900  0.03761100  0.19102200
   0.21377439  0.03370605  0.37561911
   0.33738900  0.16261100  0.09487400
   0.33935205  0.16370187  0.28486771
   0.46238900  0.03761100  0.19102200
   0.46469759  0.04509513  0.37989119
   0.58738900  0.16261100  0.09487400
   0.58964172  0.16135299  0.28604597
   0.71238900  0.03761100  0.19102200
   0.71604221  0.02686087  0.37754344
   0.83738900  0.16261100  0.09487400
   0.83943360  0.16090768  0.28449021
   0.96238900  0.03761100  0.19102200
   0.96882970  0.03278964  0.37852445
   0.08738900  0.41261100  0.09487400
   0.08679516  0.41177158  0.28528989
   0.21238900  0.28761100  0.19102200
   0.21196168  0.28801354  0.37977228
   0.33738900  0.41261100  0.09487400
   0.33501663  0.41556046  0.28517825
   0.46238900  0.28761100  0.19102200
   0.46100475  0.29885563  0.38045652
   0.58738900  0.41261100  0.09487400
   0.58605655  0.41195114  0.28654143
   0.71238900  0.28761100  0.19102200
   0.71920339  0.28383023  0.38080593
   0.83738900  0.41261100  0.09487400
   0.83661072  0.41133365  0.28518674
   0.96238900  0.28761100  0.19102200
   0.96768703  0.28434926  0.37580957
   0.08738900  0.66261100  0.09487400
   0.08761495  0.66076470  0.28388270
   0.21238900  0.53761100  0.19102200
   0.19882797  0.53704452  0.37693769
   0.33738900  0.66261100  0.09487400
   0.33671539  0.66201266  0.28224473
   0.46238900  0.53761100  0.19102200
   0.44862494  0.56114413  0.38425201
   0.58738900  0.66261100  0.09487400
   0.58748212  0.65881349  0.28514165
   0.71238900  0.53761100  0.19102200
   0.70502251  0.53271327  0.37851423
   0.83738900  0.66261100  0.09487400
   0.83668603  0.66153307  0.28425024
   0.96238900  0.53761100  0.19102200
   0.96039716  0.53297170  0.37940897
   0.08738900  0.91261100  0.09487400
   0.08924671  0.91110278  0.28503309
   0.21238900  0.78761100  0.19102200
   0.22524544  0.78652413  0.38018224
   0.33738900  0.91261100  0.09487400
   0.33479053  0.91455765  0.28292667
   0.46238900  0.78761100  0.19102200
   0.45912655  0.79890079  0.37294398
   0.58738900  0.91261100  0.09487400
   0.58669272  0.91154904  0.28644861
   0.71238900  0.78761100  0.19102200
   0.71559319  0.78451458  0.37928437
   0.83738900  0.91261100  0.09487400
   0.83722963  0.91147695  0.28402494
   0.96238900  0.78761100  0.19102200
   0.96463347  0.78726405  0.37279285
   0.36893266  0.19970612  0.43151479
   0.81140277  0.11702699  0.42969786
   0.80177188  0.62424143  0.43068518
   0.27728059  0.62994102  0.43312442
   0.56135001  0.39412153  0.42731768
Direct configuration=     4
   0.08738900  0.16261100  0.09487400
   0.08935202  0.16158553  0.28483206
   0.21238900  0.03761100  0.19102200
   0.21382190  0.03371630  0.37557280
   0.33738900  0.16261100  0.09487400
   0.33938437  0.16363940  0.28484144
   0.46238900  0.03761100  0.19102200
   0.46472581  0.04508752  0.37989491
   0.58738900  0.16261100  0.09487400
   0.58967284  0.16132487  0.28602427
   0.71238900  0.03761100  0.19102200
   0.71611265  0.02682247  0.37763386
   0.83738900  0.16261100  0.09487400
   0.83942579  0.16101811  0.28450218
   0.96238900  0.03761100  0.19102200
   0.96882526  0.03279483  0.37855590
   0.08738900  0.41261100  0.09487400
   0.08672108  0.41186524  0.28527547
   0.21238900  0.28761100  0.19102200
   0.21202945  0.28800306  0.37977764
   0.33738900  0.41261100  0.09487400
   0.33501873  0.41551272  0.28514877
   0.46238900  0.28761100  0.19102200
   0.46090148  0.29884700  0.38042317
   0.58738900  0.41261100  0.09487400
   0.58607594  0.41191078  0.28650171
   0.71238900  0.28761100  0.19102200
   0.71937663  0.28354802  0.38086120
   0.83738900  0.41261100  0.09487400
   0.83656516  0.41135205  0.28521321
   0.96238900  0.28761100  0.19102200
   0.96769336  0.28428552  0.37587215
   0.08738900  0.66261100  0.09487400
   0.08757339  0.66084526  0.28386033
   0.21238900  0.53761100  0.19102200
   0.19876155  0.53705439  0.37688814
   0.33738900  0.66261100  0.09487400
   0.33669974  0.66211573  0.28223231
   0.46238900  0.53761100  0.19102200
   0.44839831  0.56139545  0.38425774
   0.58738900  0.66261100  0.09487400
   0.58740032  0.65880123  0.28513358
   0.71238900  0.53761100  0.19102200
   0.70493087  0.53273748  0.37860916
   0.83738900  0.66261100  0.09487400
   0.83658617  0.66159259  0.28426521
   0.96238900  0.53761100  0.19102200
   0.96027813  0.53292513  0.37940220
   0.08738900  0.91261100  0.09487400
   0.08922133  0.91114551  0.28509122
   0.21238900  0.78761100  0.19102200
   0.22531737  0.78677080  0.38023833
   0.33738900  0.91261100  0.09487400
   0.33483778  0.91456577  0.28289198
   0.46238900  0.78761100  0.19102200
   0.45904215  0.79881739  0.37292238
   0.58738900  0.91261100  0.09487400
   0.58676652  0.91152364  0.28643675
   0.71238900  0.78761100  0.19102200
   0.71553458  0.78440373  0.37938295
   0.83738900  0.91261100  0.09487400
   0.83726625  0.91153786  0.28403214
   0.96238900  0.78761100  0.19102200
   0.96474452  0.78730260  0.37278922
   0.36900172  0.19985693  0.43148371
   0.81155814  0.11702907  0.42986064
   0.80194638  0.62414467  0.43078540
   0.27713296  0.62991051  0.43317108
   0.56157245  0.39441871  0.42740555
